LAMMPS data file via write_data, version 29 Aug 2024, timestep = 2401, units = real

1680 atoms
18 atom types
1680 bonds
18 bond types
2520 angles
25 angle types
4080 dihedrals
31 dihedral types
1980 impropers
9 improper types

0 41.774299502515 xlo xhi
0 41.774299502515 ylo yhi
0 52.6323192878316 zlo zhi

Masses

1 12.01
2 12.01
3 12.01
4 16
5 1.008
6 14.01
7 14.01
8 1.008
9 12.01
10 1.008
11 16
12 16
13 1.008
14 1.008
15 16
16 1.008
17 12.01
18 35.45

Pair Coeffs # lj/charmm/coul/long

1 0.086 3.39967 0.086 3.39967
2 0.086 3.39967 0.086 3.39967
3 0.086 3.39967 0.086 3.39967
4 0.21 2.9599 0.21 2.9599
5 0.015 2.5996 0.015 2.5996
6 0.17 3.25 0.17 3.25
7 0.17 3.25 0.17 3.25
8 0.0157 1.0691 0.0157 1.0691
9 0.1094 3.39967 0.1094 3.39967
10 0.01569 2.64954 0.01569 2.64954
11 0.21 2.9599 0.21 2.9599
12 0.21 2.9599 0.21 2.9599
13 0.015 2.5996 0.015 2.5996
14 0.015 2.5996 0.015 2.5996
15 0.155865 3.178 0.155865 3.178
16 0 0 0 0
17 0.06844 3.407 0.06844 3.407
18 0.265 3.47094 0.265 3.47094

Bond Coeffs # harmonic

1 461.1 1.3984
2 345.8 1.086
3 345.9 1.4906
4 345.9 1.4906
5 637.7 1.2183
6 637.7 1.2183
7 417.9 1.3859
8 417.9 1.3859
9 404.6 1.0121
10 404.6 1.0121
11 300.9 1.5375
12 330.6 1.0969
13 427.6 1.379
14 400.1 1.3513
15 371.4 0.973
16 371.4 0.973
17 450 1.0118
18 267.4 1.8029

Angle Coeffs # harmonic

1 66.6 120.02
2 64.3 120.33
3 64.3 120.33
4 48.2 119.88
5 68.7 122.6
6 68.7 122.6
7 68.3 120.95
8 68.3 120.95
9 48.4 116.07
10 48.4 116.07
11 63.8 123.71
12 48.3 117.55
13 67.7 115.25
14 74.2 123.05
15 62.9 111.51
16 46.3 109.8
17 39.4 107.58
18 69.2 113.45
19 49.9 106.55
20 75.9 122.1
21 40.1 115.12
22 55 108.15
23 61.111 114.705
24 58.8 120.69
25 40.1 115.12

Dihedral Coeffs # charmm

1 3.625 2 180 0.5
2 3.625 2 180 0
3 3.625 2 180 0
4 3.625 2 180 0
5 0.45 2 180 0
6 0.45 2 180 0
7 3.625 2 180 0
8 3.625 2 180 0
9 3.625 2 180 0
10 3.625 2 180 0
11 3.625 2 180 0
12 3.625 2 180 0
13 3.625 2 180 0
14 1.05 2 180 0
15 1.05 2 180 0
16 0.45 2 180 0
17 2.3 2 180 0
18 2.3 2 180 0
19 1.05 2 180 0
20 2.3 2 180 0
21 2.3 2 180 0
22 1 2 180 0
23 2.3 2 180 0
24 2.3 2 180 0
25 0.25 2 180 0
26 0.2 1 180 0
27 0.18 3 180 0
28 0.16 3 0 0
29 0.15 3 0 0
30 10.5 2 180 0
31 1 2 180 0

Improper Coeffs # harmonic

1 1.1 180
2 1.1 180
3 1.1 180
4 1.1 180
5 1.1 180
6 1.1 180
7 10.5 180
8 1.1 180
9 1.1 180

Atoms # full

1 9 5 0.10745 5.480125161386131 0.6949668894312762 0.6596353119819971 0 0 1
968 85 3 0.014 2.066929664713986 14.617467060404994 20.633355086068317 1 0 0
518 74 3 -0.1956 1.0295642305278443 20.603254344531198 17.20177616089884 0 0 0
543 20 7 -0.4621 2.0003774166874293 18.166612651040108 20.678385077585837 0 0 0
924 83 1 0.6797 0.18705526900587013 6.726757518960471 11.359066619018261 1 0 0
4 63 3 0.014 10.54830812460309 2.2929740836322012 3.0671656577926356 0 0 0
5 63 3 -0.1956 11.9313343628421 2.5234714626375907 2.920125957690832 0 0 0
6 63 3 0.014 12.825782658345947 1.429361054644672 2.920739230948849 0 0 0
41 83 4 -0.5760999999999999 0.1676705166758794 2.805639121133332 7.904253534152201 1 0 0
9 63 3 -0.1956 10.053111446896242 0.9777952443321971 3.2385195185297233 0 0 0
10 63 1 0.6797 8.598479727456624 0.6816782436441198 3.4387741145146964 0 0 0
867 1 5 0.10745 0.38289736367950855 4.62393893576969 14.590856429936338 0 0 0
12 63 5 0.1816 9.889827298158405 3.1541480532457107 3.0636430320740224 0 0 0
13 63 18 -0.1036 7.708952346906916 1.6382509265398828 3.0940740204074335 0 0 0
332 12 5 0.10745 11.039134111478072 1.007277262952226 0.3785675751957525 0 0 1
14 63 1 0.6797 12.40151060413102 3.932160815164935 2.74765161179245 0 0 0
15 63 4 -0.5760999999999999 11.645727112697717 4.809645325941252 2.363958844164904 0 0 0
16 63 5 0.1816 13.889737758173684 1.5889539588627635 2.775352058537791 0 0 0
17 63 18 -0.1036 14.104452807104172 4.309236727599285 3.211005588435327 0 0 0
1344 84 1 0.6797 0.06784299349826863 2.768460334934007 16.99335989451672 1 0 0
30 64 4 -0.5760999999999999 13.981909990566761 2.8079285385072352 0.38146685285250637 0 0 0
355 12 5 0.10745 9.447241289368986 2.9158610095357997 0.39394376419140287 0 0 1
7 63 3 -0.1956 12.348410965471663 0.10906022041066935 3.066513900979189 0 0 0
969 85 3 -0.1956 3.11649922557582 15.027420153465053 21.48133936383387 1 0 0
555 4 5 0.10745 12.738879325030569 0.42487464685327436 23.653040078720213 0 0 0
976 85 4 -0.5760999999999999 1.6284498628735191 15.939922088266602 23.08600450758143 1 0 0
517 74 4 -0.5760999999999999 0.6449200966083743 18.38518906219724 17.986267629696265 0 0 0
865 1 3 -0.1565 0.7100726237398083 4.0576809445832325 13.72133833648355 0 0 0
941 34 8 0.23105 1.0730696694068278 8.095149784100142 14.215536631926556 1 0 0
489 1 8 0.23105 2.996574979148801 1.8782737401122915 10.150274520809347 0 0 0
37 1 3 -0.1565 2.4947990786271395 3.3830989855919738 12.210567317447111 0 0 0
38 1 5 0.10745 3.5411886495973453 3.4322745135808446 11.917479892964357 0 0 0
487 1 3 0.1716 1.5768350820624832 2.605722629921424 11.473897269145782 0 0 0
36 1 3 -0.23 2.047673464030637 4.154932921820293 13.29605843807342 0 0 0
488 1 7 -0.4621 2.0069891664917927 1.8917344202696966 10.363942529474144 0 0 0
533 1 8 0.23105 1.3684506238504583 1.7653497247972443 9.584899958274457 0 0 0
461 19 3 -0.1565 6.641779237926579 19.30778717501446 12.928161950057845 0 0 0
72 19 8 0.23105 6.898726551654937 20.185040045381218 10.494498806447991 0 0 0
73 19 5 0.10745 6.246798710855205 18.603475870911254 12.200144036498763 0 0 0
880 83 5 0.1816 0.5303683586407456 4.780464895027017 9.342780390363705 1 0 0
903 80 5 0.1816 20.067824680636203 19.65124628878944 7.0137751886120645 0 0 0
930 84 5 0.1816 4.6518152893146905 0.81902787766732 14.880179011549286 1 0 0
929 84 5 0.1816 2.7057715917802345 3.225215516121262 17.89183138989602 1 0 0
516 74 18 -0.1036 0.4800530469732559 18.837318538401146 16.14401162734067 0 0 0
928 84 18 -0.1036 6.267666267503616 2.0233776683241924 16.55670079882738 1 0 0
927 84 3 0.014 3.756727051810228 1.214665807859267 15.346825760032363 1 0 0
902 80 3 -0.1956 20.838496974261478 20.518852682539322 5.213457446640711 0 0 0
1339 84 3 -0.1956 2.5134205497962263 0.8551129778431428 14.786675567492223 1 0 0
86 111 1 0.6797 5.3617959471748105 6.22959348365124 15.567052438295223 0 0 0
96 111 4 -0.5760999999999999 5.502764334727742 5.022608680709903 15.474557144604097 0 0 0
942 34 5 0.10745 2.751786897969947 5.509001236233072 18.70318997607812 1 0 0
952 34 3 -0.23 2.4317642363749408 6.384913328877231 18.149600773111178 1 0 0
79 111 3 0.014 6.091179211685364 6.262013597801821 17.96139149396093 0 0 0
97 111 5 0.1816 6.348246059534069 5.219032595925781 17.82721113403654 0 0 0
944 34 3 -0.1565 2.179238616562221 6.297769895361631 16.769596862861913 1 0 0
931 84 3 0.014 2.6246558729359992 2.561927139812936 17.037418116999184 1 0 0
932 84 3 -0.1956 3.82183957051099 2.0556272626705443 16.48483383431062 1 0 0
943 34 5 0.10745 2.320296016073456 5.349954716979728 16.257324160357697 1 0 0
933 84 1 0.6797 5.11815911745781 2.4317149958795437 17.138454117412966 1 0 0
39 1 5 0.10745 2.751898364376267 4.775574268978053 13.838197066294317 0 0 0
934 84 4 -0.5760999999999999 5.156596226892819 3.043001315479192 18.19357972803936 1 0 0
947 34 8 0.23105 1.5837966474243783 6.458650525563983 14.245443996197368 1 0 0
1341 84 3 0.014 1.3233138401591613 1.3548523885936121 15.363537009377366 1 0 0
1342 84 3 -0.1956 1.3673755129547753 2.222151181586141 16.47674696247686 1 0 0
1343 84 5 0.1816 0.35639436656594986 1.1038017393844404 14.945835689178681 1 0 0
54 3 8 0.23105 7.908122048716346 7.079098234767097 13.90092282381946 0 0 0
61 3 8 0.23105 9.276693684166572 6.253750566936411 14.533409452110847 0 0 0
62 3 7 -0.4621 8.621586497135105 7.022231545361687 14.61820838849995 0 0 0
949 34 3 0.1716 1.8124905755852978 7.452432217683569 16.047751292232288 1 0 0
953 34 3 -0.1565 2.2017494466084244 7.594866548900661 18.829402260817954 1 0 0
940 34 8 0.23105 1.5606696021848456 10.810248137721132 18.255330269516357 1 0 0
77 34 8 0.23105 1.8330809743318046 10.011150515744957 19.77939887254746 1 0 0
78 34 5 0.10745 2.3560456614274643 7.630922169022103 19.905370075984838 1 0 0
80 111 3 -0.1956 5.55454096115377 6.961513081062616 16.858533994592218 0 0 0
81 111 3 0.014 5.219598675749882 8.327892710006006 17.00284386908953 0 0 0
82 111 3 -0.1956 5.428943834059926 8.993413783953244 18.226806159271167 0 0 0
83 111 3 0.014 5.988715194154808 8.285248985992203 19.316405368120567 0 0 0
85 111 1 0.6797 5.056604066608906 10.437842444387726 18.320049697266036 0 0 0
87 111 4 -0.5760999999999999 4.9575383708318626 11.15148282156933 17.335168018248904 0 0 0
88 111 5 0.1816 4.779704270833493 8.888749246527587 16.187070674743143 0 0 0
91 111 18 -0.1036 4.975436825509807 7.202738380451932 14.098708663797515 0 0 0
946 34 7 -0.4621 1.605301772467543 9.950068525159978 18.79582122344036 1 0 0
951 34 3 0.1716 1.8042746140641406 8.751181943578603 18.124782443807845 1 0 0
84 111 3 -0.1956 6.322648403429492 6.921146646233104 19.192669595860476 0 0 0
950 34 3 -0.23 1.6254203048161497 8.678405214653852 16.72595332210914 1 0 0
90 111 18 -0.1036 4.871256918828324 10.790718449583945 19.204788766968374 0 0 0
945 34 5 0.10745 1.3300380219981056 9.566937334964779 16.172095446082512 1 0 0
973 85 5 0.1816 3.868930229159153 13.506075782395516 17.954701027626495 1 0 0
948 34 7 -0.4621 1.621029282400334 7.374483477369126 14.67565309860351 1 0 0
171 67 4 -0.5760999999999999 10.212085925657275 14.362757770118384 24.77682954996435 0 0 0
956 85 4 -0.5760999999999999 1.5107722932277978 12.850888035094613 17.496829727042027 1 0 0
978 85 1 0.6797 1.2656408434780675 13.580105475946661 18.440285339616114 1 0 0
55 3 5 0.10745 11.978601163075325 9.621270343310428 16.326772279515986 0 0 0
56 3 5 0.10745 11.10558553586199 7.456271920617941 15.478006777364927 0 0 0
57 3 3 -0.1565 10.431005741918298 8.303363280358916 15.585495230622982 0 0 0
58 3 5 0.10745 7.17917200936414 9.236898445116898 15.021520103349163 0 0 0
59 3 8 0.23105 8.220071529147543 12.448511503803925 16.475959493539246 0 0 0
60 3 7 -0.4621 7.8463916118785875 11.59969439463951 16.07164697438667 0 0 0
63 3 3 0.1716 9.087000547770725 8.208009890394255 15.169622915407086 0 0 0
64 3 3 -0.1565 10.055407244735171 10.613887095333629 16.251605596605774 0 0 0
65 3 3 -0.23 10.929458437440147 9.527460962106119 16.063117781174693 0 0 0
66 3 3 0.1716 8.694869886726124 10.515267352587982 15.893363204856074 0 0 0
67 3 3 -0.23 8.217247841853627 9.310450565330713 15.33258655442803 0 0 0
71 3 8 0.23105 6.850719466878648 11.432994546875678 16.19208758123129 0 0 0
68 3 5 0.10745 10.448287767164077 11.543340372988425 16.65533293666774 0 0 0
92 109 4 -0.5760999999999999 8.0386191981393 10.809014134067388 19.380304642207864 0 0 0
100 109 3 -0.1956 11.324343762820527 8.13206677550242 19.351070372381503 0 0 0
101 109 3 0.014 10.24179206596944 9.033401776715845 19.224977986537645 0 0 0
107 109 1 0.6797 11.264139637378376 6.732549989381144 18.822378368133588 0 0 0
109 109 4 -0.5760999999999999 12.233687675944372 5.997361038225897 18.855275798972805 0 0 0
111 109 5 0.1816 9.327469021414426 8.746362882868604 18.718045588462612 0 0 0
114 109 18 -0.1036 9.692981321463602 6.139515677357359 18.16481172563705 0 0 0
1350 20 3 -0.23 5.2333498975821495 17.638341209010864 18.92934495032394 0 0 0
980 85 3 0.014 3.6858775027939243 13.936061023818723 18.935884851178322 1 0 0
971 20 5 0.10745 7.215392589903665 17.848599920126123 19.75953511951443 0 0 0
981 85 3 -0.1956 4.748373591767338 14.36004329193377 19.77353042144454 1 0 0
514 18 5 0.10745 4.275547293243626 20.01826526918835 16.822943281143935 0 0 0
926 83 18 -0.1036 1.1024184857131571 6.682070936679712 11.035743522680779 1 0 0
1348 20 5 0.10745 3.158801066923444 17.57245069023855 18.348909724079892 0 0 0
116 18 8 0.23105 4.526174040353098 20.30744978591001 14.119296629371945 0 0 0
1347 20 3 -0.1565 6.14790402563877 17.91687065725505 19.95915733886361 0 0 0
168 85 1 0.6797 6.191368736261519 14.27870279930761 19.37850986696917 1 0 0
169 85 4 -0.5760999999999999 7.0865249552591045 14.478662193936303 20.183093552978573 1 0 0
170 85 18 -0.1036 6.39433471458166 14.063516226201383 18.4537090081022 1 0 0
1346 20 5 0.10745 5.593827902118698 17.370716524906566 17.941013409346088 0 0 0
979 85 3 -0.1956 2.3446552665645437 14.060654925738255 19.360960199542504 1 0 0
1351 20 3 -0.1565 3.852476711878914 17.765151207575748 19.164062048352218 0 0 0
542 20 8 0.23105 1.3721863357933677 17.97416711310707 19.901245362420074 0 0 0
519 74 1 0.6797 0.6805850458174159 19.153304754902436 17.03997264880496 0 0 0
525 74 5 0.1816 1.4075991197272162 20.350985933478103 19.29971992672137 0 0 0
523 19 5 0.10745 6.4030258490379595 17.94220692983589 14.589627002657014 0 0 0
452 19 3 -0.23 6.733687312838187 18.927654503037058 14.278277087423831 0 0 0
1357 65 3 0.014 4.683470990172523 1.949374601140537 21.204448500715063 0 0 0
965 65 18 -0.1036 1.8011380248252356 4.606868990459675 22.53539672736135 0 0 0
964 65 4 -0.5760999999999999 2.3060885519812215 3.190496643316828 20.37057538632021 0 0 0
553 65 3 0.014 6.3631825762956815 1.644056962869569 22.94873229236689 0 0 0
963 65 1 0.6797 2.7328732222881986 3.482841855375034 21.474671460806427 0 0 0
119 65 5 0.1816 4.008434627177299 3.9165673458630708 23.92695284140914 0 0 0
122 65 4 -0.5760999999999999 5.772196351355594 3.9613351601578475 25.702026750747656 0 0 0
127 66 4 -0.5760999999999999 4.564842778530949 6.251575356385712 22.538540184537588 0 0 0
128 65 3 0.014 4.509098422330889 3.1958362421934736 23.29144134705645 0 0 0
129 65 3 -0.1956 5.686848173148177 2.5811393228093262 23.77010558175562 0 0 0
132 65 1 0.6797 6.180213810221006 2.96465871912442 25.13150421879382 0 0 0
962 65 3 -0.1956 3.9947674303013505 2.877534630735435 22.01314616783615 0 0 0
1361 65 5 0.1816 4.273015751263006 1.7339141505157345 20.22544953111827 0 0 0
1358 65 3 -0.1956 5.870832301728701 1.3282162440295286 21.663940091249284 0 0 0
552 65 5 0.1816 7.2785652860228165 1.1552797708442462 23.272540276802847 0 0 0
559 4 3 -0.1565 10.330851842778843 0.9976950375106609 26.005556592373292 0 0 0
977 85 1 0.6797 2.771669232157495 15.624365978529433 22.808603867778764 1 0 0
94 111 1 0.6797 6.9501960589390945 6.241688313392388 20.3701580231414 0 0 0
98 111 18 -0.1036 6.927331657236061 4.891770545973502 20.41567667926307 0 0 0
123 66 3 -0.1956 7.90419491028008 6.8365827211447 25.051729330736627 0 0 0
124 66 3 0.014 6.774797510632215 6.609544754287538 24.228543647510584 0 0 0
126 66 5 0.1816 6.644221001570305 5.681940027466132 23.68278227788591 0 0 0
551 65 18 -0.1036 6.859788945752552 2.402856380539213 25.53480621005882 0 0 0
134 4 5 0.10745 11.909407702602897 4.032953689203108 25.909374661981897 0 0 0
138 4 3 0.1716 12.460603944866147 2.303432696848294 24.716810702197886 0 0 0
139 4 3 -0.23 11.683619111171692 2.994464707286137 25.674495165229096 0 0 0
1362 65 18 -0.1036 6.165089330898497 0.01502135275892158 19.619791974678208 0 0 0
141 66 18 -0.1036 8.997271366307539 5.067253527801033 24.60763678944683 0 0 0
455 19 5 0.10745 7.216464819151792 19.559380514877382 16.28330280647084 0 0 0
144 66 1 0.6797 8.983163655984486 5.814668692254295 25.226736461604272 0 0 0
556 4 3 -0.1565 12.156078000704596 0.9651841758194536 24.395761083907793 0 0 0
137 4 7 -0.4621 13.510477993623926 2.943156484859047 24.073136209648048 0 0 0
145 4 8 0.23105 13.570729569863014 3.953086926749063 24.124093852117173 0 0 0
146 4 8 0.23105 13.921950236804607 2.496209729375792 23.2623676681218 0 0 0
89 111 5 0.1816 6.188862343485598 8.773518635195 20.262398625478887 0 0 0
118 66 3 0.014 5.90611656411481 8.814855987573933 24.789310459082703 0 0 0
125 66 18 -0.1036 3.627773089510722 8.19771979787861 23.07578464685006 0 0 0
130 66 1 0.6797 4.623163460401435 7.290193866148489 23.1751296665433 0 0 0
131 66 3 -0.1956 5.773531117955113 7.591590436848239 24.089570873926757 0 0 0
147 66 5 0.1816 5.157588879517619 9.594585116640342 24.702713739691653 0 0 0
148 66 4 -0.5760999999999999 6.3663045131345415 11.305494918899134 25.986422106144136 0 0 0
151 67 18 -0.1036 5.985632029886011 12.490348462478611 22.748378127798492 0 0 0
155 67 4 -0.5760999999999999 5.987536230975453 10.339442539915074 22.19092321704788 0 0 0
95 111 4 -0.5760999999999999 7.4973700746395 6.878714653470539 21.25711371423243 0 0 0
93 109 18 -0.1036 9.309614795571521 12.197599652568318 19.68723131906124 0 0 0
106 109 1 0.6797 9.154854952816413 11.24605019350718 19.589891519596648 0 0 0
166 67 4 -0.5760999999999999 12.009507395875882 8.421359589766592 23.266496656559703 0 0 0
99 109 3 0.014 12.502738461101382 8.549662830797335 20.00813183174203 0 0 0
102 109 3 -0.1956 10.338622657105727 10.34516735004319 19.734002137543804 0 0 0
103 109 3 0.014 11.527932880861188 10.755487649139686 20.381444064427782 0 0 0
104 109 3 -0.1956 12.604439224193673 9.858804696574152 20.541418009807153 0 0 0
105 109 1 0.6797 13.786129666174125 10.331465201942912 21.33348509580545 0 0 0
110 109 5 0.1816 13.30828242519536 7.830576951602802 20.115741284871483 0 0 0
112 109 5 0.1816 11.633296504013785 11.75166571732482 20.800185320779825 0 0 0
120 66 3 -0.1956 7.040303946582234 9.069558225873577 25.590526520503815 0 0 0
121 66 3 0.014 8.0311317179958 8.070205848448694 25.725443630362935 0 0 0
558 4 3 -0.23 11.127155878361819 0.2987094979232671 25.081407995457578 0 0 0
150 67 18 -0.1036 10.32192982631475 7.7554398287087505 22.70815452366559 0 0 0
152 67 5 0.1816 8.138224004873935 9.147539194552282 22.389198419862215 0 0 0
153 67 5 0.1816 11.81148265606409 10.79118895936205 23.983673355626102 0 0 0
154 67 5 0.1816 8.298199743362423 13.26530697617455 23.696037050862934 0 0 0
156 67 1 0.6797 10.821500432735663 13.348158779457515 24.49061094741534 0 0 0
157 67 1 0.6797 10.818893549570472 8.522596478878448 23.026972553732005 0 0 0
158 67 1 0.6797 6.609178238695972 11.30411975634639 22.599129012957967 0 0 0
159 67 3 -0.1956 8.054725670736703 11.207506732082352 22.985516095965398 0 0 0
160 67 3 0.014 8.711461423368345 9.968833561702853 22.810079417954793 0 0 0
161 67 3 -0.1956 10.073711029300457 9.816154073580973 23.17753376301758 0 0 0
162 67 3 0.014 10.771362600673267 10.92150335798734 23.7083200808818 0 0 0
163 67 3 -0.1956 10.124445684435637 12.163567811480096 23.895842079105496 0 0 0
164 67 3 0.014 8.768142792030673 12.300787517119808 23.533765135034127 0 0 0
108 109 4 -0.5760999999999999 13.760492794580697 11.403131659688636 21.91433295780828 0 0 0
172 67 18 -0.1036 12.596946306305666 13.235598498541787 24.775374502273465 0 0 0
990 35 5 0.10745 16.851057542438 10.157908034229605 25.522270466131218 0 0 0
113 109 18 -0.1036 14.87624860997406 9.536140361890935 21.39382533859063 0 0 0
986 35 5 0.10745 18.36976907817063 12.108490412820219 25.627695148382923 0 0 0
546 20 3 -0.23 4.287970958312545 18.31543025545764 21.495156427609242 0 0 0
545 20 3 0.1716 5.677957629270367 18.213638168416896 21.255359125283892 0 0 0
1030 85 18 -0.1036 4.107934568747422 15.872570032372689 23.995652433061874 1 0 0
1349 20 3 0.1716 3.367378779422987 18.094500313459854 20.446716944143628 0 0 0
515 18 8 0.23105 5.0964417734449565 20.043519944720565 19.128741997653933 0 0 0
970 85 3 0.014 4.452156126247605 14.901425050204182 21.0407365333736 1 0 0
539 20 8 0.23105 1.6446557246749274 17.98083738831518 21.6108470018946 0 0 0
541 20 5 0.10745 3.924441353741115 18.564790646675494 22.48951146448419 0 0 0
540 20 8 0.23105 6.250953792987731 18.515342323498068 23.23651374550543 0 0 0
544 20 7 -0.4621 6.585657878872592 18.42307820340532 22.284773328667992 0 0 0
167 20 8 0.23105 7.552816794487207 18.150925722503988 22.149725921701986 0 0 0
974 85 5 0.1816 5.274908490858569 15.244995114640762 21.65522153781814 1 0 0
975 85 5 0.1816 1.050457512474583 14.733403347287082 20.993938435996256 1 0 0
451 19 3 -0.1565 7.1956978046808 19.849258682499336 15.235278481271607 0 0 0
40 30 8 0.23105 0.6368451738167501 0.8048717857540526 5.901159716407613 1 0 0
1340 84 18 -0.1036 0.09617177958097634 3.342007733858051 17.775288840343528 1 0 0
206 113 18 -0.1036 13.897629291326972 9.607444756883103 25.76091940550983 0 0 0
982 35 3 -0.1565 18.59173700821882 11.229124413208483 26.227425190130496 0 0 0
983 35 3 -0.23 17.72266153770886 10.125511040564453 26.166590893846656 0 0 0
1359 65 1 0.6797 6.642200409921278 0.33971157292576215 20.841682699203474 0 0 0
143 66 4 -0.5760999999999999 9.826473134541462 5.917589046396026 26.1003878866397 0 0 0
456 19 3 0.1716 7.129176173493596 20.56632984113718 12.51831004501859 0 0 0
1150 10 3 -0.23 0.15507294815571254 0.4413105641046623 0.455757873755598 0 0 1
1298 1 3 -0.23 0.22973879001262132 2.5252502974844946 11.892634293983877 0 0 0
149 66 1 0.6797 7.163972206270268 10.417665587762896 26.229702249570522 0 0 0
204 113 4 -0.5760999999999999 11.329966997025272 9.288610030644662 26.302070807289923 0 0 0
174 5 3 -0.23 6.430252298464239 2.2720498245158636 29.344799447692786 0 0 0
178 5 5 0.10745 6.274583673790226 3.2408694653443066 29.81258779530091 0 0 0
181 5 8 0.23105 3.961055570568257 3.1130842126613905 29.071982264467984 0 0 0
175 5 3 0.1716 5.373332102404297 1.6518081792356545 28.637527944658217 0 0 0
176 5 7 -0.4621 4.133036610892886 2.267984200457567 28.54183650041203 0 0 0
177 5 8 0.23105 3.33174503914365 1.7124608900399567 28.269029908118807 0 0 0
179 5 3 -0.1565 5.569934772205826 0.38879098554440994 28.040685106618206 0 0 0
182 113 3 0.014 11.590148702150271 7.301157666594845 28.280303725064915 0 0 0
185 113 3 0.014 13.037666061435228 6.1211394526751794 29.841130107880815 0 0 0
186 113 3 -0.1956 11.751131326675914 6.34277888728695 29.30881958002698 0 0 0
187 113 1 0.6797 10.612389095403449 5.523922506178227 29.839510399247352 0 0 0
189 113 4 -0.5760999999999999 10.783141680099053 4.585798734265417 30.60007099829647 0 0 0
191 113 5 0.1816 13.13208037190561 5.382446423042404 30.63106295183088 0 0 0
192 113 18 -0.1036 9.35934583273688 5.851541928824202 29.450900265798435 0 0 0
623 103 18 -0.1036 10.9376135727109 2.1780857955882835 33.17777043262254 0 1 0
627 103 5 0.1816 12.592616092458853 2.3802461663354504 31.018166717043382 0 1 0
616 103 3 0.014 12.338907101270538 1.5044742759401168 30.42917824260815 0 1 0
621 103 1 0.6797 13.837574100050647 2.4300848493233236 28.657713920681054 0 1 0
611 5 7 -0.4621 8.727099560277866 2.2079094779060315 30.163965927081804 0 0 0
613 5 8 0.23105 8.588824108515226 3.1082249676415543 30.608985097466867 0 0 0
609 5 3 0.1716 7.683045894633176 1.6286085509259571 29.454973061245198 0 0 0
198 76 4 -0.5760999999999999 13.99322725687456 0.962315522905804 32.87371868056727 0 1 0
612 5 8 0.23105 9.678307853718069 1.9783566412511586 29.899966837113464 0 0 0
622 103 1 0.6797 10.97190739901917 0.5685430459854353 32.36371989133266 0 1 0
617 103 3 -0.1956 12.893142813923022 1.3717783731604634 29.139353139255526 0 1 0
135 4 8 0.23105 8.971866311920413 2.5896720164914337 27.562459437197496 0 0 0
133 4 8 0.23105 9.860734528660187 4.034669917889606 27.24013538721213 0 0 0
136 4 7 -0.4621 9.83641380660809 3.01995888302996 27.25163624474689 0 0 0
184 113 3 -0.1956 14.162678919114676 6.821527656647512 29.337831094418092 0 0 0
200 103 4 -0.5760999999999999 14.116220041712975 3.4034433133379856 29.336879225077382 0 1 0
188 113 1 0.6797 15.547841296680032 6.617532910838004 29.877173483498357 0 0 0
193 113 18 -0.1036 15.651589563197891 6.0376752909379015 30.649210257277662 0 0 0
194 35 7 -0.4621 19.362634970275877 7.806395820109296 28.534262689267287 0 0 0
195 35 8 0.23105 18.561492630741583 7.2185282026918705 28.750918745242476 0 0 0
989 35 5 0.10745 17.37241385643767 8.08972479754616 26.80214514567785 0 0 0
201 113 4 -0.5760999999999999 16.5182416289837 7.180465845505824 29.402193413823888 0 0 0
196 35 8 0.23105 20.106866154173613 7.827817539700787 29.21885908280659 0 0 0
577 103 18 -0.1036 14.251182019342181 2.307659843293004 27.789130019578774 0 1 0
213 6 7 -0.4621 12.106984057474746 10.20274150744319 30.826144940837032 0 0 0
214 6 8 0.23105 11.280123517884386 10.789689040015508 30.85486264730825 0 0 0
220 6 8 0.23105 12.33625050426121 9.731258611476058 31.692054012167972 0 0 0
228 106 4 -0.5760999999999999 12.039024057811368 13.41755481500308 31.805685914739676 0 0 0
205 113 5 0.1816 10.619792667693035 7.511303527707145 27.85422852487813 0 0 0
222 6 5 0.10745 11.86561186371394 11.76012228852143 28.68384886853894 0 0 0
165 66 18 -0.1036 8.55511969518335 10.718387465467668 27.337388000063896 0 0 0
202 113 3 -0.1956 12.69893604029121 7.991306248395663 27.75136939983055 0 0 0
203 113 1 0.6797 12.459464150228008 8.959580386980939 26.63444020534112 0 0 0
1009 35 7 -0.4621 20.558289398862787 12.31635902966451 27.133850740092903 0 0 0
583 22 3 -0.23 14.253946546793484 20.727668847112298 30.016956985703647 0 0 0
219 6 5 0.10745 13.756618008179379 12.678934570995665 27.354506009906906 0 0 0
183 113 3 0.014 13.986145866902925 7.743696744361112 28.2824427943618 0 0 0
207 6 3 -0.1565 15.268116277055144 11.583163428120193 28.435428948693858 0 0 0
218 6 3 -0.1565 12.886539852661672 11.47007272688568 28.922959570417227 0 0 0
210 6 3 -0.23 14.485173828122019 10.25340428937119 30.317466039169634 0 0 0
212 6 3 0.1716 13.155668536445898 10.640511918256095 30.030490097323217 0 0 0
217 6 5 0.10745 14.69264834330715 9.599986420733833 31.161022541912793 0 0 0
226 106 18 -0.1036 14.116767354686855 13.075229192962922 32.53872134258904 0 0 0
216 6 8 0.23105 17.559156487880443 10.63427412394408 29.09277905030326 0 0 0
987 35 3 0.1716 19.125155789369046 8.937418699858249 27.76605183976264 0 0 0
208 6 3 -0.23 13.950683319030738 11.994030907397818 28.17038059854992 0 0 0
215 6 7 -0.4621 16.85421577841063 10.316528685145526 29.750081022138538 0 0 0
372 91 4 -0.5760999999999999 19.31694421291174 5.399135259512077 45.837776743000404 0 0 0
190 113 5 0.1816 14.855169137738581 8.269313109224663 27.903605276024308 0 0 0
211 6 5 0.10745 16.077100000366404 11.959729313483434 27.81349237964968 0 0 0
209 6 3 0.1716 15.547696627452563 10.710374488209675 29.505328705675737 0 0 0
988 35 3 -0.1565 18.023617455313513 8.956808712292643 26.886142133038607 0 0 0
221 6 8 0.23105 17.0016140199951 9.376874945138274 30.103571555616124 0 0 0
303 112 4 -0.5760999999999999 5.58159250186245 20.638566688578543 41.88539364672566 0 0 0
227 106 5 0.1816 11.79278508458857 14.739830881532177 29.762106493476196 0 0 0
967 106 1 0.6797 12.35432721720807 16.22676270286495 27.426908217266888 0 0 0
173 106 18 -0.1036 11.411122038813895 16.01074867482314 27.507335291533227 0 0 0
591 22 8 0.23105 12.069235776138271 20.036551865008718 28.70844220212188 0 0 0
223 22 5 0.10745 15.183857116241429 18.65571051842877 27.443280979220166 0 0 0
1021 106 5 0.1816 15.900890586714057 14.148444994976165 30.940274631532095 0 0 0
229 106 1 0.6797 13.23716904627747 13.593688218412737 31.653277881751983 0 0 0
1024 106 3 -0.1956 13.77407006726393 14.360624644968174 30.481479727639538 0 0 0
1025 106 3 0.014 12.847259121628918 14.898593082685428 29.562697497874627 0 0 0
1026 106 3 -0.1956 13.2916986530474 15.61787328052984 28.42476227433816 0 0 0
1027 106 3 0.014 14.676237439513677 15.78731834671035 28.215767604608946 0 0 0
1022 106 4 -0.5760999999999999 17.893684920412316 15.082613730814018 29.796185789892238 0 0 0
1019 106 18 -0.1036 17.670813755405973 16.199673909676132 27.41926818251516 0 0 0
1023 106 1 0.6797 17.093235343533962 15.436099392012729 28.947910972108946 0 0 0
1428 108 3 -0.1956 19.69110514488174 17.174623174823566 32.187138275745475 0 0 0
225 108 4 -0.5760999999999999 15.645440184687027 16.106935969837384 32.83348171519984 0 0 0
593 108 1 0.6797 15.932715280408505 17.29147477611225 32.812978772300184 0 0 0
590 22 3 -0.1565 15.27594524696667 19.32708750928425 28.292382959768627 0 0 0
1434 108 3 -0.1956 17.345145295304654 17.754704297920235 32.628790286077475 0 0 0
1028 106 3 -0.1956 15.61757754233814 15.26058788386325 29.129150754927498 0 0 0
1064 108 5 0.1816 18.03982355223347 15.748148069114245 32.32517461749337 0 0 0
1435 108 3 0.014 18.341848382808735 16.78846941124408 32.37840134515516 0 0 0
1029 106 3 0.014 15.159962846534032 14.546592505140683 30.2566854016234 0 0 0
1020 106 5 0.1816 14.996924145080847 16.333760618075093 27.3382181741646 0 0 0
594 108 18 -0.1036 14.635992571805481 18.53331157767871 32.98436673160651 0 0 0
966 106 4 -0.5760999999999999 12.751242694997211 16.984962180864457 26.558558383908867 0 0 0
547 22 8 0.23105 12.81606619901851 18.958818348169093 27.580988197422002 0 0 0
586 22 7 -0.4621 12.869390564311804 19.46893385566712 28.459193647549853 0 0 0
224 22 5 0.10745 17.436338397984024 19.389399578133315 28.194844749322495 0 0 0
581 22 3 -0.23 16.550206406021736 19.748095634327573 28.708080558632535 0 0 0
585 22 3 0.1716 14.12421706580739 19.845952008366766 28.91826915584751 0 0 0
269 7 5 0.10745 12.563302934192087 0.43689992416804124 35.82999740382687 0 0 0
197 76 18 -0.1036 16.493684780614092 1.549962928949723 33.453868977687094 0 1 0
272 7 5 0.10745 14.899146291097496 0.8712398830961996 36.535154328048684 0 0 0
199 76 1 0.6797 15.077406291821127 0.4776091051532262 33.14391276657825 0 1 0
244 23 8 0.23105 10.405863700914942 19.68009683691795 34.391702877104095 0 0 0
251 69 18 -0.1036 11.568188177343954 20.536077967145555 38.543414189328345 0 0 0
243 23 8 0.23105 11.88953333159012 19.478027921751316 33.52467054645067 0 0 0
242 23 7 -0.4621 11.340577528506852 20.01242810881512 34.18818772133515 0 0 0
1429 108 3 0.014 20.034223716342815 18.542631928511604 32.25608651486412 0 0 0
1431 108 3 -0.1956 19.046826189704475 19.52582934990881 32.51864994759567 0 0 0
1432 108 3 0.014 17.70689701806718 19.119454381111577 32.7001485039644 0 0 0
1364 108 5 0.1816 16.962302664644188 19.877277038472307 32.901708267400714 0 0 0
233 8 3 -0.23 13.754519753951405 1.3293040936519716 41.12605415546564 0 0 0
557 4 5 0.10745 9.510450237537267 0.4766001358032937 26.490835891572914 0 0 0
236 8 5 0.10745 13.377288573820476 1.785151821216844 40.2135221330575 0 0 0
255 8 3 -0.1565 14.330883610190739 1.4934217840625625 43.48526425251931 0 0 0
256 8 3 0.1716 13.81425399075772 2.086744629039521 42.316613939889606 0 0 0