LAMMPS data file via write_data, version 29 Aug 2024, timestep = 3842, units = real

8400 atoms
18 atom types
8400 bonds
18 bond types
12600 angles
25 angle types
20400 dihedrals
31 dihedral types
9900 impropers
9 improper types

0 90 xlo xhi
0 90 ylo yhi
0 90 zlo zhi

Masses

1 12.01
2 12.01
3 12.01
4 16
5 1.008
6 14.01
7 14.01
8 1.008
9 12.01
10 1.008
11 16
12 16
13 1.008
14 1.008
15 16
16 1.008
17 12.01
18 35.45

Pair Coeffs # lj/charmm/coul/long

1 0.086 3.39967 0.086 3.39967
2 0.086 3.39967 0.086 3.39967
3 0.086 3.39967 0.086 3.39967
4 0.21 2.9599 0.21 2.9599
5 0.015 2.5996 0.015 2.5996
6 0.17 3.25 0.17 3.25
7 0.17 3.25 0.17 3.25
8 0.0157 1.0691 0.0157 1.0691
9 0.1094 3.39967 0.1094 3.39967
10 0.01569 2.64954 0.01569 2.64954
11 0.21 2.9599 0.21 2.9599
12 0.21 2.9599 0.21 2.9599
13 0.015 2.5996 0.015 2.5996
14 0.015 2.5996 0.015 2.5996
15 0.155865 3.178 0.155865 3.178
16 0 0 0 0
17 0.06844 3.407 0.06844 3.407
18 0.265 3.47094 0.265 3.47094

Bond Coeffs # harmonic

1 461.1 1.3984
2 345.8 1.086
3 345.9 1.4906
4 345.9 1.4906
5 637.7 1.2183
6 637.7 1.2183
7 417.9 1.3859
8 417.9 1.3859
9 404.6 1.0121
10 404.6 1.0121
11 300.9 1.5375
12 330.6 1.0969
13 427.6 1.379
14 400.1 1.3513
15 371.4 0.973
16 371.4 0.973
17 450 1.0118
18 267.4 1.8029

Angle Coeffs # harmonic

1 66.6 120.02
2 64.3 120.33
3 64.3 120.33
4 48.2 119.88
5 68.7 122.6
6 68.7 122.6
7 68.3 120.95
8 68.3 120.95
9 48.4 116.07
10 48.4 116.07
11 63.8 123.71
12 48.3 117.55
13 67.7 115.25
14 74.2 123.05
15 62.9 111.51
16 46.3 109.8
17 39.4 107.58
18 69.2 113.45
19 49.9 106.55
20 75.9 122.1
21 40.1 115.12
22 55 108.15
23 61.111 114.705
24 58.8 120.69
25 40.1 115.12

Dihedral Coeffs # charmm

1 3.625 2 180 0.5
2 3.625 2 180 0
3 3.625 2 180 0
4 3.625 2 180 0
5 0.45 2 180 0
6 0.45 2 180 0
7 3.625 2 180 0
8 3.625 2 180 0
9 3.625 2 180 0
10 3.625 2 180 0
11 3.625 2 180 0
12 3.625 2 180 0
13 3.625 2 180 0
14 1.05 2 180 0
15 1.05 2 180 0
16 0.45 2 180 0
17 2.3 2 180 0
18 2.3 2 180 0
19 1.05 2 180 0
20 2.3 2 180 0
21 2.3 2 180 0
22 1 2 180 0
23 2.3 2 180 0
24 2.3 2 180 0
25 0.25 2 180 0
26 0.2 1 180 0
27 0.18 3 180 0
28 0.16 3 0 0
29 0.15 3 0 0
30 10.5 2 180 0
31 1 2 180 0

Improper Coeffs # harmonic

1 1.1 180
2 1.1 180
3 1.1 180
4 1.1 180
5 1.1 180
6 1.1 180
7 10.5 180
8 1.1 180
9 1.1 180

Atoms # full

198 311 4 -0.5760999999999999 20.277261290860316 2.3173874620793815 2.3718832369198624 0 0 0
197 311 1 0.6797 20.770244372477787 3.4340572887566467 2.3400322241425915 0 0 0
17 5 8 0.23105 17.099442825129007 4.536849615927011 2.3686807567257704 0 0 0
48 5 7 -0.4621 17.793394321954572 5.254928493944615 2.198576815956314 0 0 0
200 311 18 -0.1036 20.92833965497717 4.309340188511659 0.7693588630321689 0 0 0
49 5 8 0.23105 17.768579275896297 5.713273256567005 1.2953298748754807 0 0 0
199 311 3 -0.1956 21.22453052766231 4.122085350866819 3.5889743813048804 0 0 0
166 311 5 0.1816 20.393334204881278 2.5828170616427224 4.819396648501479 0 0 0
16 5 5 0.10745 17.505278783355728 4.611546399030241 4.779668313364103 0 0 0
15 5 3 -0.23 18.075300386711568 5.519596202943214 4.603379397117072 0 0 0
163 311 3 0.014 20.93201933015946 3.52260218544844 4.830811828997046 0 0 0
1914 67 8 0.23105 19.039866813020588 0.9983493691044628 1.0598937607235055 0 0 1
4352 67 7 -0.4621 19.067198222884585 0.2949608852362549 0.32704251797762585 0 0 1
18 302 3 -0.1956 25.270124478150816 2.65824626248831 0.2636684036505232 0 0 0
19 302 1 0.6797 24.908759809278934 3.234180469111643 1.5977714869524495 0 0 0
20 302 4 -0.5760999999999999 24.009336145585863 4.049987097258019 1.7100224390602916 0 0 0
21 302 18 -0.1036 25.62124780610568 2.8523360723417346 2.6792303089928886 0 0 0
24 302 5 0.1816 26.74787381155289 1.1992318338802483 0.9510177320950278 0 0 0
1918 1 7 -0.4621 22.52496385812197 0.6913838625946971 1.0135863141411605 0 0 0
2207 1 5 0.10745 23.89033564188577 0.33710497676864437 3.286325307393325 0 0 0
22 302 3 0.014 26.231890446627695 1.6309458338017282 0.10242007348111293 0 0 0
1919 1 8 0.23105 22.060564327174653 0.6786713393524569 0.11200627882963068 0 0 0
973 324 18 -0.1036 24.958509459936113 24.939761198188116 41.19158181791944 0 0 0
2208 1 8 0.23105 21.937262918479924 0.9224362514281366 1.8081441410480883 0 0 0
1069 331 1 0.6797 21.408679954708834 22.294682758500436 44.66811469010836 0 0 0
1846 74 3 -0.23 2.6572541144208084 30.83492769837629 1.6381960733315868 0 0 1
2243 88 8 0.23105 0.879403036918004 44.77675045325944 13.210133706983967 0 0 0
6194 71 8 0.23105 0.47176409075566333 28.651870165741933 4.05959357436677 0 0 1
5 303 3 -0.1956 32.9039562395317 2.849554329454604 1.157842958031668 0 0 0
4 303 3 0.014 31.67445853523842 2.969926034621852 0.4658103107970883 0 0 0
7 303 5 0.1816 30.862039424308332 3.569034326628448 0.8561744732104525 0 0 0
2356 12 5 0.10745 29.04389205136991 1.484751705424817 1.3595243664303553 0 0 0
3035 508 5 0.1816 21.768704073974043 44.3624013393063 28.620329761582724 0 0 0
2347 12 3 -0.23 29.10277121370047 2.7264654530475747 3.119876742936288 0 0 0
6 303 1 0.6797 33.16960340071851 3.53353191009424 2.4656244326164125 0 0 0
8 303 18 -0.1036 32.219075330689314 4.358493828456485 2.958518203983216 0 0 0
2355 12 3 -0.1565 29.11943731583446 1.4972189290436118 2.442635432745292 0 0 0
2348 12 5 0.10745 29.01054735825011 3.647831519000603 2.5595659865457123 0 0 0
2352 12 3 0.1716 29.170330643136797 0.2914940695124076 3.1710719919349963 0 0 0
310 12 3 -0.23 29.307726443427327 0.3233960887324262 4.577398095444096 0 0 0
141 303 3 0.014 33.92912612603417 2.048751474618657 0.6089485612586982 0 0 0
6335 514 5 0.1816 44.593804461587126 43.076250019483446 0.47780966311617695 0 0 0
142 303 5 0.1816 34.85376076031546 1.960504221636994 1.1709125821654904 0 0 0
140 303 4 -0.5760999999999999 34.21438793076364 3.372014592726567 3.071051481528643 0 0 0
11 3 3 -0.1565 11.916618726456658 9.217936577606551 3.1141197773619753 0 0 0
12 3 5 0.10745 11.418943686290689 8.82651531382231 2.229762589336129 0 0 0
145 3 7 -0.4621 9.955057369157542 10.516966606896007 3.674707868424931 0 0 0
146 3 8 0.23105 9.562840266427225 10.243617333918277 2.7820375338158874 0 0 0
144 3 3 0.1716 11.254314943414963 10.123834343821976 3.968189610737201 0 0 0
13 3 3 -0.23 13.256081550776889 8.87341935110543 3.3619413840327876 0 0 0
14 3 5 0.10745 13.784559403287629 8.218725913814733 2.676727351320523 0 0 0
312 9 5 0.10745 14.334473097621162 5.68299821318324 5.224468539985065 0 0 0
35 3 3 -0.1565 13.89012536273522 9.32469018205979 4.532752176247214 0 0 0
37 3 5 0.10745 14.910773539444218 9.010453984328468 4.7334957150157075 0 0 0
47 5 3 0.1716 18.29825959059941 5.9638653404018465 3.280557650134838 0 0 0
340 311 3 0.014 21.911545274028853 5.356112199689111 3.5626112923269058 0 0 0
52 5 3 -0.1565 19.057899723236943 7.132211666865768 3.065079572934758 0 0 0
53 5 5 0.10745 19.255505450058497 7.480300147921535 2.053724904549365 0 0 0
190 14 8 0.23105 17.633831174267332 9.534023571400068 4.560329689358063 0 0 0
341 311 3 -0.1956 22.301999980800367 5.996247070894521 4.756440722088726 0 0 0
193 5 3 -0.23 19.597274938002663 7.846395334006121 4.149481388978014 0 0 0
194 5 3 -0.1565 19.306901768127695 7.447284274283396 5.465477987866873 0 0 0
196 5 5 0.10745 20.19697017097718 8.733378667856016 3.969827480079393 0 0 0
188 14 7 -0.4621 17.47267715752206 10.370077019627827 5.112459151212542 0 0 0
189 14 8 0.23105 17.85542498615725 11.237842591165542 4.7576753751930445 0 0 0
344 311 5 0.1816 22.148145333922802 5.8359269706964865 2.624240081257967 0 0 0
55 501 5 0.1816 24.828832861792808 6.65531218182916 2.0660435670248534 0 0 0
56 501 18 -0.1036 22.9428976881325 7.359532620928893 0.25432213776010654 0 0 0
54 501 3 0.014 25.72918384324762 6.553169412824807 1.4720476205673523 0 0 0
57 501 3 -0.1956 25.679629830794823 6.6249957550285545 0.060423535465946775 0 0 0
201 501 3 -0.1956 26.947815850176966 6.316992150179559 2.1420434619340574 0 0 0
978 324 3 0.014 22.451924212512534 22.75201027071357 40.8003779148668 0 0 0
343 311 4 -0.5760999999999999 23.20371041732244 7.856551111756691 3.5662358361068063 0 0 0
342 311 1 0.6797 22.9939193665541 7.323136726178608 4.6436686576533655 0 0 0
1861 74 8 0.23105 0.1163231130421283 29.22639765609971 0.3140083832523808 0 0 1
168 501 3 0.014 28.136333448561388 6.17736808538018 1.382265124622959 0 0 0
798 508 3 -0.1956 18.93789880047575 44.72472149342295 31.28683942608427 0 0 0
4670 181 5 0.10745 44.38492175818015 21.607405575033848 4.813911007927311 0 0 0
6196 446 1 0.6797 0.028071374857527517 25.74529684120787 1.8742355531893993 1 0 1
2237 88 7 -0.4621 1.0571153516630338 44.57224715103278 12.23455120371512 0 0 0
1860 74 8 0.23105 1.4523630702001664 28.565404625627668 1.157795605613632 0 0 1
169 501 5 0.1816 29.097487932599233 6.003534200912859 1.8552007969187754 0 0 0
1945 345 18 -0.1036 6.416214768278287 17.58861416911441 0.4434252614409612 0 0 1
147 3 8 0.23105 9.605681556186 11.378590787444281 4.078965487168582 0 0 0
31 2 3 -0.1565 8.887216452904156 15.013440426758077 4.972220310023502 0 0 0
32 2 3 -0.23 9.787200487799504 13.98158465271108 4.651467999279385 0 0 0
71 6 8 0.23105 11.600646128134755 15.807617383367536 4.690801993403989 0 0 0
1985 2 3 -0.23 9.377695362066964 16.114177776586196 2.8565519784150397 0 0 0
1951 2 3 -0.1565 10.421383493681523 13.969634642965316 3.397057413298777 0 0 0
1948 2 3 0.1716 10.252999639631293 15.056591036241992 2.515059882103277 0 0 0
1952 2 5 0.10745 11.088747479250364 13.150663126001941 3.1377070231635913 0 0 0
62 2 3 0.1716 8.675976701970365 16.087428075295126 4.082786364567749 0 0 0
1950 2 8 0.23105 11.657251951678893 14.371530571220559 1.1493659900794326 0 0 0
1949 2 7 -0.4621 10.934280679056128 15.068357761940852 1.3065227344410353 0 0 0
1987 2 8 0.23105 11.01585611251453 15.936200374415012 0.793480507610255 0 0 0
1934 4 5 0.10745 13.09200338257966 11.416064122103025 1.431519454098209 0 0 0
39 4 3 0.1716 14.084481918254028 13.186565506880873 2.1984576252424497 0 0 0
40 4 7 -0.4621 14.272196884588487 12.656146067544487 3.466977836298548 0 0 0
41 4 8 0.23105 13.862343288524514 11.754328393316941 3.684756355437402 0 0 0
43 4 3 -0.23 14.547527253131321 14.482127260561702 1.8760195684747092 0 0 0
68 6 3 0.1716 13.31015382353133 15.287687531840842 5.743477111027332 0 0 0
69 6 7 -0.4621 12.573544882279943 16.050906292143292 4.848980966064066 0 0 0
70 6 8 0.23105 13.061198914003418 16.505138382898668 4.086578387540907 0 0 0
1932 4 3 -0.1565 13.439067076083981 12.421791446855428 1.2050787143256503 0 0 0
42 4 8 0.23105 14.480883014330479 13.273354466971341 4.244298447710223 0 0 0
45 4 5 0.10745 15.063576115178549 15.074147804946964 2.6260948746212036 0 0 0
50 6 3 -0.1565 14.715180846106486 15.232174914245576 5.6364176374982025 0 0 0
51 6 5 0.10745 15.225972762378197 15.788303818821067 4.85398649598888 0 0 0
192 6 5 0.10745 16.552664745183403 14.402381480341774 6.419967596876716 0 0 0
1953 4 3 0.1716 14.34190366801142 15.009990052075432 0.580543126705185 0 0 0
46 4 8 0.23105 15.402146675513793 16.764824885003737 0.9093370939370995 0 0 0
61 304 1 0.6797 38.295644040293304 17.451832450496262 1.7616476789541313 0 0 0
79 304 18 -0.1036 38.163103694686285 17.208296813684175 3.084327008341912 0 0 0
1976 304 4 -0.5760999999999999 37.3260463228822 17.39091080392304 1.0262685361346993 0 0 0
1946 345 3 -0.1956 5.268496887327998 19.75050957038484 0.39678498413268526 0 0 1
1984 345 4 -0.5760999999999999 6.435276129122502 18.8665359093981 2.26975792055602 0 0 1
1947 345 1 0.6797 6.079623099880482 18.711809099336048 1.1144593855668419 0 0 1
1983 345 5 0.1816 5.253923449092709 21.005434727341992 2.134526266645557 0 0 1
1982 345 3 0.014 4.918757105617253 20.921931286179007 1.105031620511425 0 0 1
1808 345 3 -0.1956 4.150429027474858 21.94112821735366 0.4857396028425255 0 0 1
1986 2 5 0.10745 9.236937283602408 16.94604358816268 2.171114885853469 0 0 0
63 2 7 -0.4621 7.799510609862057 17.1086625486341 4.424672235733233 0 0 0
65 2 8 0.23105 7.481256279573056 17.748648635333392 3.7016446811575676 0 0 0
209 7 5 0.10745 17.552521864351647 18.884133053750716 4.603968244478702 0 0 0
221 7 5 0.10745 15.951624861497491 20.35385636703866 3.412429604499118 0 0 0
82 306 1 0.6797 39.21396201673386 21.068988283468588 4.584383913150792 0 0 0
83 306 4 -0.5760999999999999 38.963515559873166 20.302254887432003 3.6692614738410434 0 0 0
84 306 5 0.1816 37.42070041197412 19.24968815762543 5.2639549364458915 0 0 0
1972 70 8 0.23105 37.10385458830374 20.175625723880398 0.4903658363456306 0 0 1
1971 70 7 -0.4621 37.90070927023438 20.714468641777035 0.8102708360472818 0 0 1
1805 70 5 0.10745 40.38192655768588 21.450674910476724 1.459378111595084 0 0 1
1806 70 8 0.23105 38.118740746669815 20.66065718398702 1.8003360284673804 0 0 1
1804 70 3 -0.23 40.217238079511986 21.32474379410717 0.3934819030831514 0 0 1
2032 74 3 -0.23 1.436677827397249 32.98840419930542 0.28981160060381433 0 0 1
60 304 3 -0.1956 39.66503710630632 17.75369919886195 1.2333911408970595 0 0 0
78 304 5 0.1816 40.620166460895334 18.207171448202864 3.144475508964506 0 0 0
95 306 18 -0.1036 40.074817590519 22.090237758433908 4.390778561454795 0 0 0
77 304 3 0.014 40.74590140165515 18.119680923302063 2.07160371386248 0 0 0
86 304 1 0.6797 43.11473682396144 18.825079911441428 2.4494999780875313 0 0 0
87 304 4 -0.5760999999999999 42.98997081575451 18.776260535171087 3.6606349251861436 0 0 0
88 304 18 -0.1036 44.65898406789945 19.409484692542307 1.7235836421180062 0 0 0
85 304 3 -0.1956 42.01179767522497 18.41833337341636 1.5234688402653411 0 0 0
4703 184 8 0.23105 41.94499409171737 18.836783215777405 5.423087127426579 0 0 0
4716 184 5 0.10745 40.24254705766745 17.056830170018742 5.364841017204473 0 0 0
1831 70 8 0.23105 42.62707125830824 22.301604661550222 0.8566666463898299 0 0 1
1807 345 18 -0.1036 4.065525419175735 23.33302325016043 2.0962464461248724 0 0 1
6300 446 18 -0.1036 0.5912105280887062 24.40063130760244 2.9367694091348073 1 0 1
1109 45 7 -0.4621 25.708630556690306 23.211094275701253 44.048378001766956 0 0 0
1809 345 1 0.6797 3.7358753316092264 23.197340765987025 1.1928923896995383 0 0 1
2013 71 5 0.10745 1.618879389892063 33.720758623103386 6.699231845626489 0 0 1
2011 71 3 -0.1565 1.3026552288929125 32.872895226621935 6.095742258943994 0 0 1
982 35 8 0.23105 28.74090243670669 22.17093696560017 42.00845765900952 0 0 0
1844 74 8 0.23105 4.367728141332931 31.68391675677161 3.433267021217132 0 0 1
2000 71 3 -0.23 1.3697273453109013 31.57721768020252 6.639172342275355 0 0 1
2010 74 3 0.1716 3.092142218884083 32.15996503140866 1.8754594177352661 0 0 1
2012 71 3 0.1716 0.87469992896395 33.07244988307297 4.767539616568331 0 0 1
1845 74 5 0.10745 3.1400200118019383 30.006125044403145 2.150067425179427 0 0 1
2009 74 7 -0.4621 4.119451789691805 32.41157446459776 2.7748280111833754 0 0 1
2008 74 8 0.23105 4.254715208411331 33.3662318829067 3.0823326964097424 0 0 1
2015 71 7 -0.4621 0.8604355497504848 34.34827653100788 4.22595628685961 0 0 1
2014 71 8 0.23105 0.6609423887257014 35.11982683550008 4.855323896730165 0 0 1
1847 71 8 0.23105 0.5817740569850398 34.45845351514138 3.2583151339915224 0 0 1
357 16 7 -0.4621 0.16958684594448478 22.0538785421617 24.20147936494721 0 0 0
6220 71 5 0.10745 0.1497305230155398 32.10039132021755 2.9691108972634384 0 0 1
284 176 8 0.23105 38.32148937620109 38.8004192529713 0.16267165940588268 0 0 0
2109 353 18 -0.1036 34.96520000053273 39.029813102241185 1.6676610549125606 0 0 0
494 16 3 -0.1565 1.3614128421692664 20.315297239918664 25.391058506001276 0 0 0
4485 514 5 0.1816 43.56000515876316 39.12764897589279 1.9149816410071472 0 0 0
111 176 3 -0.23 40.970448573266566 36.87321319626602 0.7780373870114183 0 0 0
6301 446 5 0.1816 0.4948232235386933 23.415327261598957 0.4285377501085107 1 0 1
282 176 3 0.1716 39.930641785693986 37.809242388360936 0.9761306122370592 0 0 0
4610 176 3 -0.23 40.80256021561041 38.281375501886195 3.2146311842419424 0 0 0
846 35 8 0.23105 32.34309296453843 25.460371497938727 41.374534821858795 0 0 0
4477 176 3 0.1716 41.90537559495984 36.62458273836681 1.809273592790339 0 0 0
4480 176 8 0.23105 43.13516659850768 35.398936388338655 0.6789593459399493 0 0 0
4478 176 7 -0.4621 42.93491819105889 35.71391880065986 1.6234855165788422 0 0 0
4593 176 3 -0.1565 41.78867182644371 37.295595574274515 3.04376272138718 0 0 0
4594 176 5 0.10745 42.492794494984196 37.093965822445014 3.848625726867184 0 0 0
4479 176 8 0.23105 43.734837627814414 35.78851523327156 2.2457396212441565 0 0 0
116 78 8 0.23105 0.8439514913296136 44.27126560698935 4.343889529312289 0 0 0
2239 88 8 0.23105 1.0608620004785987 43.600022940090554 11.951486679235515 0 0 0
492 16 8 0.23105 0.5968985904352535 22.735247239966473 24.816845553128076 0 0 0
2064 351 3 -0.1956 27.389469414616567 44.22160565993412 0.6947326834574412 0 0 0
4484 514 3 0.014 44.28612849988518 39.91375341033695 1.7302123879874236 0 0 0
2098 79 8 0.23105 27.785112621645954 44.173033732683386 4.473348747570668 0 0 0
2097 79 7 -0.4621 28.311653166150222 44.9969294667494 4.211833447377823 0 0 0
799 508 1 0.6797 17.85423140656271 44.7660532839068 32.31710894513291 0 0 0
2063 351 1 0.6797 26.63438332286388 42.93081471922451 0.6535245301375543 0 0 0
4232 351 4 -0.5760999999999999 25.432343101788184 42.89647137807123 0.8390559918033391 0 0 0
6333 514 3 -0.1956 43.91068068968259 41.149514773508365 1.1432072392019716 0 0 0
2096 79 3 0.1716 29.636547213566462 44.85058140049534 3.8245470373458095 0 0 0
280 79 3 -0.1565 32.35037908500899 44.57704766651326 3.077361798073687 0 0 0
119 79 3 -0.23 30.07936769868737 43.674563984142104 3.177710480647757 0 0 0
120 79 5 0.10745 29.379523860585856 42.8664436608732 2.9808306720591182 0 0 0
121 79 8 0.23105 31.19714841417137 41.83257662571908 1.643042943820616 0 0 0
126 79 3 0.1716 31.43305692383098 43.5459472572083 2.7892786894097896 0 0 0
127 79 7 -0.4621 31.875436497297862 42.404080152685914 2.1380350162295865 0 0 0
128 79 8 0.23105 32.81285201588197 42.41675258582643 1.7579168753660908 0 0 0
131 353 5 0.1816 33.146114833164496 40.234106887782154 0.11486753762593734 0 0 0
2020 74 5 0.10745 2.772191707413335 34.26034097622465 1.4129234133253972 0 0 1
3036 508 3 0.014 20.99256576127774 44.47081970341808 29.36736968344784 0 0 0
281 79 5 0.10745 33.399291733017705 44.47635936934131 2.8079259433845745 0 0 0
849 35 3 0.1716 30.68273796614674 25.20489393746416 40.158852820135394 0 0 0
2067 351 3 0.014 28.74376139298912 44.31738921367058 0.3015664769981202 0 0 0
2108 353 4 -0.5760999999999999 37.08397784543635 40.35585157504989 0.8224631617822238 0 0 0
2107 353 1 0.6797 35.87142656400477 40.277350005148186 0.7308460723076681 0 0 0
4609 176 3 -0.1565 39.85239402888035 38.50246168627408 2.2016963759555996 0 0 0
6332 514 1 0.6797 42.512381626420655 41.458313297413625 0.6982683589581015 0 0 0
4486 514 18 -0.1036 41.82004714487311 40.816542550963064 0.9083948171370487 0 0 0
4612 176 5 0.10745 40.73855742655163 38.830087284685334 4.148463023683583 0 0 0
4611 176 5 0.10745 39.0649639855751 39.23563235916222 2.3653052499746647 0 0 0
289 9 3 -0.1565 15.017466402167768 4.522452243807749 8.362240136812986 0 0 0
314 9 3 -0.23 15.090612516295487 4.655623976685944 6.9653089429076935 0 0 0
315 9 5 0.10745 15.832340773160443 4.097483360568897 6.405971479458328 0 0 0
135 9 8 0.23105 13.256950858653473 5.589414216796275 10.97677329936375 0 0 0
290 9 5 0.10745 15.71055024440576 3.8599390014817634 8.87538904887629 0 0 0
286 9 3 0.1716 14.000592652742618 5.18751626879077 9.078106225975558 0 0 0
287 9 7 -0.4621 13.900516809038702 5.012373342459537 10.451000947378557 0 0 0
288 9 8 0.23105 14.6993972371571 4.634581153600102 10.950339039581895 0 0 0
167 311 18 -0.1036 20.409751518150422 2.3525885408432705 7.42897258677858 0 0 0
158 5 8 0.23105 17.549907129259026 5.232092167147288 7.169419616704287 0 0 0
164 311 3 -0.1956 21.30917673891913 4.151049288278826 6.043618384317641 0 0 0
165 311 1 0.6797 20.979411372781293 3.5770533735224905 7.387422776216239 0 0 0
324 311 4 -0.5760999999999999 21.208187094736196 4.1773002588488195 8.424565043843696 0 0 0
300 310 4 -0.5760999999999999 19.21458197541984 1.196228686083535 11.512334286232974 0 0 0
295 10 8 0.23105 18.6432566670058 2.808506496024771 10.148944994122363 0 0 0
326 11 7 -0.4621 21.940474646170763 2.538796952761712 10.91369656788288 0 0 0
327 11 8 0.23105 21.900046474798952 3.2665380918434868 10.205546861943219 0 0 0
328 11 8 0.23105 21.278161781279355 1.7784378660734101 10.801167289353305 0 0 0
292 10 3 0.1716 17.783231903317056 4.488681809972571 10.974364025837401 0 0 0
294 10 7 -0.4621 18.531009438646837 3.811121286410621 10.022947973755787 0 0 0
323 10 8 0.23105 19.319787941238477 4.290430227396697 9.599056625790556 0 0 0
309 12 8 0.23105 29.816744977168966 0.7723237954521357 7.126514604390213 0 0 0
306 12 5 0.10745 29.31567556915407 3.717230586276701 5.025115358971965 0 0 0
307 12 7 -0.4621 29.531242951992844 1.6095036346999547 6.633499720838143 0 0 0
2498 12 3 -0.1565 29.2771991148698 2.758202071769646 4.514813873872642 0 0 0
305 12 3 0.1716 29.378642794902937 1.5617335128195138 5.254368963321097 0 0 0
308 12 8 0.23105 29.728837098818822 2.501277501928959 7.07140009953986 0 0 0
151 9 8 0.23105 11.832184712951221 7.773967136026905 6.869177702822255 0 0 0
180 3 3 -0.23 11.906361685678519 10.603676983986903 5.128316138716108 0 0 0
148 9 3 0.1716 13.234189850607999 6.251116803831019 7.007074371607947 0 0 0
149 9 7 -0.4621 12.371654021384787 7.105457914377941 6.334040696567999 0 0 0
150 9 8 0.23105 12.607316931688315 7.379477653583125 5.385448041541311 0 0 0
36 3 3 0.1716 13.22429938856811 10.190437510914904 5.425013539577226 0 0 0
133 9 3 -0.23 13.110882785542719 6.053448047819465 8.400781205285307 0 0 0
134 9 5 0.10745 12.333192815367582 6.5740924512555665 8.95380408623584 0 0 0
152 14 3 -0.23 16.78135522530131 9.032558320955516 7.02410395725752 0 0 0
153 14 5 0.10745 16.539908477929423 8.19983994802939 6.367985644388972 0 0 0
313 9 3 -0.1565 14.235951987696676 5.553759498260994 6.300111919868015 0 0 0
154 14 8 0.23105 15.61148022394139 7.067363651980766 8.335332618616453 0 0 0
317 14 7 -0.4621 16.08038342754993 7.728805105894086 8.946646510875714 0 0 0
316 14 3 0.1716 16.57669982672311 8.91017660698507 8.416398263968908 0 0 0
187 14 3 0.1716 17.285833393134265 10.235067553002134 6.481030856646483 0 0 0
38 3 8 0.23105 14.850835194152918 10.428214152067504 6.6855397750135666 0 0 0
182 3 7 -0.4621 13.864645439117117 10.636448974044576 6.571207065716136 0 0 0
319 14 3 -0.1565 16.857999228895313 9.999050705874845 9.266871822437327 0 0 0
337 14 3 -0.23 17.430267345279315 11.16893700339592 8.738913812594406 0 0 0
318 14 8 0.23105 15.872343741848665 7.677216553611146 9.936895601607219 0 0 0
320 14 5 0.10745 16.68347619270413 9.925469242482606 10.336978963732394 0 0 0
156 5 7 -0.4621 18.33615667966761 5.850267728907177 7.002209238873932 0 0 0
157 5 8 0.23105 18.52736636883671 6.516417842016434 7.742003293448242 0 0 0
155 5 3 0.1716 18.578807985693203 6.2617528401508835 5.697513640520413 0 0 0
329 311 3 0.014 21.995467284186216 5.3847397294172215 5.998085434253566 0 0 0
330 311 5 0.1816 22.2633251371769 5.847397415531275 6.942136428564219 0 0 0
195 5 5 0.10745 19.685820879944764 8.035016454185115 6.298713012545234 0 0 0
336 14 3 -0.1565 17.59964777037574 11.301111596976257 7.348577265844491 0 0 0
321 10 3 -0.23 17.90373190213818 5.886684423505921 11.131415666349648 0 0 0
322 10 5 0.10745 18.571707864499746 6.448736222728356 10.482831393973429 0 0 0
170 501 18 -0.1036 27.77632669813897 6.195142235898327 4.099372279783503 0 0 0
202 501 1 0.6797 26.92181822429126 6.205044525050372 3.6386577825767885 0 0 0
203 501 4 -0.5760999999999999 25.883151179064928 6.120696057716796 4.268218921662192 0 0 0
331 311 18 -0.1036 23.25291074107483 7.7642163471932255 5.470199669074129 0 0 0
34 2 5 0.10745 9.955767146800053 13.173589075383324 5.354217575343847 0 0 0
181 3 5 0.10745 11.391472973356711 11.285858283971283 5.799627932414947 0 0 0
33 2 5 0.10745 8.369581290416019 14.985338463617895 5.928134394041292 0 0 0
67 6 5 0.10745 11.58635409800577 14.584937291461419 6.8549162252494815 0 0 0
66 6 3 -0.23 12.669511693168534 14.557962248243774 6.7697449429473915 0 0 0
205 6 7 -0.4621 12.812785424304284 13.095352463286593 8.70910178642591 0 0 0
206 6 8 0.23105 11.839729727644755 13.283651172894126 8.917359349700881 0 0 0
183 3 8 0.23105 13.525661690642982 11.477978225160813 7.022090983062027 0 0 0
204 6 3 0.1716 13.434476441070668 13.807460762670697 7.691734470893348 0 0 0
185 6 3 -0.1565 14.840478153670809 13.790294312956533 7.590904270079617 0 0 0
186 6 5 0.10745 15.439466682804797 13.22638250291183 8.30178524184905 0 0 0
191 6 3 -0.23 15.473854203023913 14.449648428782549 6.5244645978107965 0 0 0
184 6 8 0.23105 13.385443223328377 12.710502344293642 9.451374589528598 0 0 0
338 14 5 0.10745 17.998566180658063 12.231138818123778 6.950236535794132 0 0 0
339 14 5 0.10745 17.69241981552276 11.990830591561133 9.397043726141916 0 0 0
234 184 8 0.23105 38.566180951577785 17.629949258569795 10.918253094999471 0 0 0
4580 184 5 0.10745 38.21116241481027 16.164242001176596 9.052455350869232 0 0 0
4579 184 3 -0.1565 38.88020847086005 16.806024043759145 8.48270699684701 0 0 0
4578 184 3 -0.23 39.11570735250914 16.52822797608816 7.125226764346618 0 0 0
4581 184 5 0.10745 38.639050326357605 15.673697469577855 6.656316082475135 0 0 0
64 2 8 0.23105 7.192545304513172 16.98067099111647 5.223844306580298 0 0 0
217 7 7 -0.4621 13.408747370079116 20.782241333104313 4.090631435758215 0 0 0
75 7 8 0.23105 13.448791744076718 17.66322988285553 7.9439173052558 0 0 0
93 7 3 -0.23 13.900275611117356 19.260099764453813 5.9281257162462815 0 0 0
94 7 5 0.10745 12.876872528988637 19.339989736570047 6.2854038135174575 0 0 0
72 7 3 0.1716 14.82746724428895 18.450170805143866 6.624382278334837 0 0 0
73 7 7 -0.4621 14.439953816640783 17.75349138929754 7.761456973663312 0 0 0
74 7 8 0.23105 15.008208699638843 16.956928315220317 8.026836277358322 0 0 0
76 7 5 0.10745 16.884029274915214 17.749807694349897 6.709447907291608 0 0 0
208 7 3 -0.1565 16.1600507806465 18.35797019144504 6.171931515941904 0 0 0
220 7 3 0.1716 14.303268968020078 19.967907740432796 4.773352741489008 0 0 0
207 7 3 -0.23 16.54004706560067 18.99413490265207 4.977682198582841 0 0 0
219 7 3 -0.1565 15.627660514686967 19.82934690102808 4.307990564819258 0 0 0
81 306 3 -0.1956 38.57547380538919 20.9270188588756 5.932881095374999 0 0 0
80 306 3 0.014 37.63723127950179 19.887578585880487 6.113637628350386 0 0 0
229 306 3 0.014 38.89836239704145 21.767349133726302 7.026917348700132 0 0 0
236 306 3 -0.1956 38.293435073846545 21.57211811265652 8.286894571568544 0 0 0
238 306 1 0.6797 38.69424565086769 22.469714083478557 9.416205240015744 0 0 0
89 306 3 -0.1956 37.01973332854496 19.681396306944627 7.372198392070247 0 0 0
90 306 1 0.6797 36.03958917329556 18.576201565619293 7.63005805520243 0 0 0
92 306 18 -0.1036 35.80958190951353 17.995213849828588 6.885671844095071 0 0 0
91 306 4 -0.5760999999999999 35.533420484625154 18.412361991677585 8.726154722702201 0 0 0
237 306 3 0.014 37.353222843078925 20.528119452257343 8.449677485083797 0 0 0
239 306 5 0.1816 36.8801379968508 20.344365742018574 9.406419417868204 0 0 0
240 306 18 -0.1036 37.99368971065494 22.140932091107977 11.04551334358563 0 0 0
232 184 3 0.1716 39.45752123492418 17.947681660163177 9.075998640011084 0 0 0
233 184 7 -0.4621 39.16122093033323 18.262095226057205 10.395123468337292 0 0 0
235 184 8 0.23105 39.81401358349439 18.83097874529364 10.919422234471494 0 0 0
353 184 3 -0.23 40.340156744879856 18.761797762891007 8.330114999876173 0 0 0
354 184 5 0.10745 40.79367433857554 19.635515721579274 8.790963427173828 0 0 0
355 184 8 0.23105 41.98588133332615 19.9908896031789 6.698413579470231 0 0 0
4702 184 7 -0.4621 41.48823415686382 19.237145853504288 6.238004044216833 0 0 0
4701 184 3 0.1716 40.63567361935846 18.440574213300245 6.9867785427982945 0 0 0
4715 184 3 -0.1565 40.02637167956184 17.314723027803392 6.3974989245340375 0 0 0
4666 181 3 0.1716 44.2523022776593 20.760415771564578 6.811886943551544 0 0 0
895 34 8 0.23105 20.91522884055649 10.272254181666378 44.60635765379761 0 0 0
4669 181 3 -0.1565 43.95027464664314 21.701632573077433 5.8063884240228845 0 0 0
6193 71 7 -0.4621 0.13207748526795882 29.568510263579896 3.7902753696495406 0 0 1
4833 181 3 -0.1565 42.50256931462845 22.892898091293937 7.358171755101385 0 0 0
4836 181 5 0.10745 42.77052960208071 23.4352587174293 5.280746408944526 0 0 0
345 181 3 -0.23 43.69728134798817 20.906850927197365 8.105579883957894 0 0 0
488 181 3 0.1716 42.82701567615656 21.984671782132942 8.38640027178831 0 0 0
4834 181 3 -0.23 43.02948372055942 22.731163688622157 6.064443789143454 0 0 0
1114 45 5 0.10745 28.213951888713066 23.26551343954375 44.94396641903834 0 0 0
218 7 8 0.23105 12.524101908757935 21.0105351779082 4.526891092909913 0 0 0
222 7 8 0.23105 13.771452268144495 21.427108683190625 3.399399546103848 0 0 0
231 306 5 0.1816 39.62381999546856 22.566952869747276 6.933371875789645 0 0 0
230 306 4 -0.5760999999999999 39.48042886954764 23.38772265958034 9.2608236184478 0 0 0
4835 181 5 0.10745 41.82844393373911 23.72382747564037 7.556916380385385 0 0 0
490 181 8 0.23105 41.63763114240646 22.92555833076158 9.792801661447376 0 0 0
2001 71 5 0.10745 1.7310407931221867 31.428123945547295 7.651814425258752 0 0 1
103 308 18 -0.1036 0.4393150892308115 37.660424531541096 6.773410521103835 0 0 0
2238 88 5 0.10745 2.115936641340813 44.15096829007589 9.809588857886585 0 0 0
2365 88 8 0.23105 3.1267090888845317 44.94686195997467 7.746621524814105 0 0 0
6187 345 4 -0.5760999999999999 3.0069904830952097 24.02249509611887 0.669975833685847 0 0 1
274 78 7 -0.4621 0.6524011620802382 44.343906118796575 5.3344782383595595 0 0 0
275 78 8 0.23105 0.01374302899800354 43.662528063916724 5.737175192053969 0 0 0
293 10 5 0.10745 16.773016273891162 2.7029085986139947 11.67980354221046 0 0 0
136 10 3 -0.23 16.141107526838436 4.4416233512291905 12.78971832442148 0 0 0
139 10 5 0.10745 15.45580713281398 3.8831387756132734 13.419286175081421 0 0 0