LAMMPS data file via write_data, version 29 Aug 2024, timestep = 1100395, units = real

732 atoms
18 atom types
788 bonds
18 bond types
1264 angles
25 angle types
2040 dihedrals
31 dihedral types
818 impropers
9 improper types

10.735350225379078 31.03894927713659 xlo xhi
10.735350225379078 31.03894927713659 ylo yhi
10.735350225379078 31.03894927713659 zlo zhi

Masses

1 12.01
2 12.01
3 12.01
4 16
5 1.008
6 14.01
7 14.01
8 1.008
9 12.01
10 1.008
11 16
12 16
13 1.008
14 1.008
15 16
16 1.008
17 12.01
18 35.45

Pair Coeffs # lj/charmm/coul/long

1 0.086 3.39967 0.086 3.39967
2 0.086 3.39967 0.086 3.39967
3 0.086 3.39967 0.086 3.39967
4 0.21 2.9599 0.21 2.9599
5 0.015 2.5996 0.015 2.5996
6 0.17 3.25 0.17 3.25
7 0.17 3.25 0.17 3.25
8 0.0157 1.0691 0.0157 1.0691
9 0.1094 3.39967 0.1094 3.39967
10 0.01569 2.64954 0.01569 2.64954
11 0.21 2.9599 0.21 2.9599
12 0.21 2.9599 0.21 2.9599
13 0.015 2.5996 0.015 2.5996
14 0.015 2.5996 0.015 2.5996
15 0.155865 3.178 0.155865 3.178
16 0 0 0 0
17 0.06844 3.407 0.06844 3.407
18 0.265 3.47094 0.265 3.47094

Bond Coeffs # harmonic

1 461.1 1.3984
2 345.8 1.086
3 345.9 1.4906
4 345.9 1.4906
5 637.7 1.2183
6 637.7 1.2183
7 417.9 1.3859
8 417.9 1.3859
9 404.6 1.0121
10 404.6 1.0121
11 300.9 1.5375
12 330.6 1.0969
13 427.6 1.379
14 400.1 1.3513
15 371.4 0.973
16 371.4 0.973
17 450 1.0118
18 267.4 1.8029

Angle Coeffs # harmonic

1 66.6 120.02
2 64.3 120.33
3 64.3 120.33
4 48.2 119.88
5 68.7 122.6
6 68.7 122.6
7 68.3 120.95
8 68.3 120.95
9 48.4 116.07
10 48.4 116.07
11 63.8 123.71
12 48.3 117.55
13 67.7 115.25
14 74.2 123.05
15 62.9 111.51
16 46.3 109.8
17 39.4 107.58
18 69.2 113.45
19 49.9 106.55
20 75.9 122.1
21 40.1 115.12
22 55 108.15
23 61.111 114.705
24 58.8 120.69
25 40.1 115.12

Dihedral Coeffs # charmm

1 3.625 2 180 0.5
2 3.625 2 180 0
3 3.625 2 180 0
4 3.625 2 180 0
5 0.45 2 180 0
6 0.45 2 180 0
7 3.625 2 180 0
8 3.625 2 180 0
9 3.625 2 180 0
10 3.625 2 180 0
11 3.625 2 180 0
12 3.625 2 180 0
13 3.625 2 180 0
14 1.05 2 180 0
15 1.05 2 180 0
16 0.45 2 180 0
17 2.3 2 180 0
18 2.3 2 180 0
19 1.05 2 180 0
20 2.3 2 180 0
21 2.3 2 180 0
22 1 2 180 0
23 2.3 2 180 0
24 2.3 2 180 0
25 0.25 2 180 0
26 0.2 1 180 0
27 0.18 3 180 0
28 0.16 3 0 0
29 0.15 3 0 0
30 10.5 2 180 0
31 1 2 180 0

Improper Coeffs # harmonic

1 1.1 180
2 1.1 180
3 1.1 180
4 1.1 180
5 1.1 180
6 1.1 180
7 10.5 180
8 1.1 180
9 1.1 180

Atoms # full

426 3 3 0.1716 12.384075944291812 20.31239987572732 15.432588981783727 2 -2 -7
339 3 8 0.23105 14.482140862752626 18.06137988241688 16.540708454855466 1 -2 -7
719 3 5 0.10745 18.091646092572827 19.085121046329107 19.685326146269 1 -2 -7
441 4 8 0.23105 15.972823800084921 15.022558409103127 14.763174307370159 2 -1 -7
637 4 8 0.23105 12.664457938006215 17.697264991980855 10.848910628070259 1 -2 -7
557 4 3 0.014 16.419984649490672 16.673173399604117 12.804733247624378 2 -1 -7
347 3 3 0.1716 18.99855634476787 18.79658615098566 16.41206474057588 1 -2 -7
346 3 1 0.743425 10.942965619759315 12.44246227063954 18.02296608823626 2 -2 -7
145 3 5 0.1816 20.67514066764793 11.106820464055872 17.8799447911492 2 -2 -7
31 4 8 0.23105 15.311364414043823 10.736655218695098 18.626660378942383 2 -1 -7
394 3 3 -0.23 12.51059026460679 20.51192520989563 16.796482073701483 2 -2 -7
318 5 7 -0.4621 12.993460515936873 19.32133438079312 19.994300958809404 2 -2 -8
321 3 3 -0.1956 12.322722041095425 12.91049341422109 17.748161719845477 2 -2 -7
162 3 5 0.1816 20.2774279095477 12.711738766989 13.905875066557051 2 -2 -7
580 4 5 0.1816 15.825100349126053 16.78994857873353 13.705696397978711 2 -1 -7
314 3 3 -0.23 16.511343604759602 18.644772452990708 16.668047111140314 1 -2 -7
484 6 5 0.10745 12.962310586703955 14.619087263365218 12.155668621933364 2 -2 -7
168 3 8 0.23105 16.019872050277293 16.077058008778785 19.17827115057349 1 -2 -7
280 5 8 0.23105 13.568981075229496 18.773829712512168 19.367210815502606 2 -2 -8
576 4 3 -0.1956 15.948652532770666 17.216318833400976 11.647380281908294 2 -1 -7
640 4 1 0.743425 14.563301374263961 17.852685303149947 11.620770177424557 2 -1 -7
371 3 5 0.131 17.524562501164468 18.517871222990863 14.78875929909327 1 -2 -7
319 5 8 0.23105 12.134848797298247 18.91566716949551 20.344225372944656 2 -2 -8
489 5 8 0.23105 11.287420309759506 20.699500929359008 11.195615713409547 2 -3 -7
174 3 5 0.1816 14.884134473063428 15.880164806429972 17.544249052979975 2 -2 -7
462 6 3 0.1716 11.613787901818858 11.49842763638842 11.758034284155945 2 -2 -7
182 3 3 0.014 13.060248068536085 13.270907579631325 18.907970806422952 2 -2 -7
533 6 3 -0.23 12.36790880261053 13.815949563144724 11.730327179162838 2 -2 -7
60 4 3 -0.23 16.348326971102722 12.158865242786394 17.520700046581027 2 -1 -7
194 3 7 -0.398375 16.74061795450633 10.797236822895966 13.015537792880112 2 -2 -7
315 3 3 0.014 12.693067200621979 13.454309560228412 16.471082047367158 2 -2 -7
139 3 3 0.014 14.288091777659483 14.973849290941631 17.59508301970304 2 -2 -7
138 3 3 0.014 19.854584222784204 12.144190819741674 14.729496610019142 2 -2 -7
645 4 8 0.23105 15.045478185355462 20.042549669978648 12.599645748546996 2 -2 -7
114 3 3 -0.1956 13.562653411993878 14.602016647032954 16.46966701964969 2 -2 -7
597 4 4 -0.5760999999999999 14.1442666942202 18.37700958763009 12.637072319464716 2 -1 -7
175 3 4 -0.5760999999999999 18.328320500712938 12.300812770811357 12.446302581439836 2 -2 -7
555 4 3 0.014 18.32911804493169 15.563137637257986 11.728264500634825 2 -1 -7
29 4 3 -0.1565 16.2741817230542 12.94331277017382 16.346212848436597 2 -1 -7
448 4 3 0.1716 18.223853352148968 13.497201378399136 18.26020604855489 2 -1 -7
680 5 3 -0.23 13.477520151170161 20.477055036250157 20.66789263204847 2 -2 -8
325 3 4 -0.5760999999999999 10.799438437395338 11.29377559572544 18.493403008092343 2 -2 -7
393 4 3 -0.23 18.142597742092406 14.278336993388974 17.088600932826736 2 -1 -7
348 3 3 0.1716 18.00423397943561 18.969613518180363 18.60909401808287 1 -2 -7
10 4 7 -0.398375 15.433304798275998 11.10413457676322 17.69161138999721 2 -1 -7
366 3 3 -0.1565 17.681615231304143 18.645772633344002 15.855640170014038 1 -2 -7
93 3 7 -0.398375 12.264412461446552 16.52895698259217 15.686349721423868 2 -2 -8
618 4 7 -0.398375 16.935007106207937 14.874739034577278 15.039904639992644 2 -1 -7
458 3 5 0.10745 13.232588650810719 19.886991847252762 14.905035614894093 2 -2 -7
565 4 1 0.743425 17.93426398192952 15.340369178773702 14.227505789498498 2 -1 -7
71 4 5 0.131 17.465569858233955 11.92411916420386 19.462554481106814 2 -1 -7
289 3 8 0.23105 15.153769183592807 18.27432892553379 15.092772905546704 1 -2 -7
193 3 4 -0.5760999999999999 13.87845154120364 15.702491295825617 14.303300027300716 2 -2 -7
134 3 1 0.743425 17.864483829417335 11.528408604833404 13.284663142358443 2 -2 -7
105 3 7 -0.398375 15.706461563892553 15.741682482655335 20.08022684319173 1 -2 -7
192 3 5 0.131 16.16134578302457 12.624283196481796 11.025064426113467 2 -2 -7
144 3 1 0.743425 14.826463963773143 14.728433114390162 20.01211395191307 2 -2 -7
599 4 3 -0.1956 17.633101622435078 15.938911542936335 12.898529846123823 2 -1 -7
307 3 7 -0.4621 15.255162937898392 18.514852650950992 16.07057380709412 1 -2 -7
420 3 5 0.131 13.496481014942582 20.307066608122614 17.203066230315457 2 -2 -7
4 4 3 -0.23 17.38048788169273 12.427970154572852 18.50435102927551 2 -1 -7
355 3 5 0.1816 12.097979836948165 13.133747542825684 15.621158195052725 2 -2 -7
309 3 7 -0.398375 20.123031955962304 18.854937893166632 15.522587652678055 1 -2 -7
270 4 5 0.1816 19.090305623461276 14.78912248287358 11.755697918707897 2 -1 -7
179 3 3 -0.1956 20.60749026805417 11.988201103182199 15.914256555271121 2 -2 -7
546 6 3 -0.1565 12.19013618842813 12.590417153689977 12.367535220590662 2 -2 -7
86 3 3 -0.1565 11.380722644161272 17.091850771574645 17.857517076668966 2 -2 -8
578 4 4 -0.5760999999999999 19.186666872732538 15.23879889420369 14.503970540736326 2 -1 -7
370 3 3 -0.1565 16.695484088491483 18.779518156744636 18.07521875655465 1 -2 -7
136 3 5 0.1816 12.744958795412693 12.806360852627858 19.83751262097944 2 -2 -7
344 3 5 0.10745 15.8581929631885 18.840655676644857 18.764032611025915 1 -2 -7
113 3 3 0.014 20.087890488139635 11.196735459878662 16.9709274305894 2 -2 -7
431 4 5 0.10745 18.959827722538094 13.706245664987698 19.030855495918782 2 -1 -7
73 4 5 0.131 15.474252437515943 12.768583875058452 15.632881752708249 2 -1 -7
351 3 3 -0.23 19.11936831433924 18.909845442337293 17.789980811038028 1 -2 -7
514 6 5 0.131 12.680234227942503 12.455505552329019 13.327150296465712 2 -2 -7
108 3 1 0.743425 13.250895986887468 15.647244750205083 15.389516681773262 2 -2 -7
282 3 5 0.131 20.106153697040195 19.066964880603955 18.215218622695883 1 -2 -7
69 3 8 0.23105 11.864705105719413 17.00153394980834 14.885642498382209 2 -2 -8
122 3 3 -0.1956 14.118311986191951 14.226100814027767 18.77085945078552 2 -2 -7
405 4 3 0.1716 17.066763379934933 14.056521029058198 16.171888829892968 2 -1 -7
189 3 3 -0.1956 18.66806498967968 11.384276893050503 14.545961413840237 2 -2 -7
171 3 3 -0.1565 15.769456930911222 11.615217852381278 10.938642929380247 2 -2 -7
336 3 1 0.743425 20.217887600171146 19.02293518260009 14.166370113644621 1 -2 -7
295 3 4 -0.5760999999999999 19.788708147366236 20.09001586790007 13.81291801245773 1 -2 -7
94 3 3 -0.23 11.320356137018845 16.362500922018334 16.67100946027287 2 -2 -8
45 3 5 0.131 11.943338991938115 18.019184470539535 17.910180601168967 2 -2 -8
630 4 5 0.131 18.812927305582967 15.131787275354547 17.049368071160583 2 -1 -7
712 4 7 -0.398375 15.785207285323388 20.72088836125388 12.469700384840104 2 -2 -7
268 2 3 -0.23 16.536952117869713 13.743222360877931 23.620324343723663 2 -1 -7
693 6 5 0.1816 10.963403552442886 11.00745358539585 25.345571394323418 2 -2 -8
666 6 5 0.131 12.119495716155049 16.44082320427607 25.520814725478765 2 -2 -8
638 4 5 0.1816 16.521230821482007 17.441142126486675 29.85385051849492 2 -1 -8
718 2 5 0.1816 17.491917532979773 19.582286173537497 26.90866077945453 1 -2 -7
235 4 4 -0.5760999999999999 19.010389291328615 14.780056821845212 29.318355030846465 2 -1 -8
316 3 8 0.23105 19.698727344680204 17.58102099345724 22.055460709768003 1 -2 -7
463 6 5 0.131 11.890638508545768 15.048107494587338 30.265584138541485 2 -2 -8
277 2 5 0.131 19.546691344424467 13.919471147838722 25.105782685777402 2 -1 -7
456 2 4 -0.5760999999999999 19.448272672996417 20.050332808025992 30.29485691820159 1 -2 -7
287 3 5 0.1816 20.52690392210441 17.220320394740213 26.59664446436366 1 -2 -8
152 3 1 0.743425 14.334882273845176 11.834065178912896 27.845418280567582 2 -2 -8
202 4 3 -0.23 15.651180411386834 15.58703441751021 28.582958370322306 1 -2 -8
675 6 3 -0.23 11.30248890465222 15.695944167480999 23.66871894217638 2 -2 -8
243 4 1 0.743425 17.90663573672544 15.185813215096818 29.548262974484743 2 -1 -8
278 2 3 -0.1565 17.333574276202015 11.56960442985296 24.270481788112132 2 -1 -7
207 4 5 0.131 16.083176350144605 16.120540741265742 26.559988050134788 1 -2 -8
368 5 5 0.131 11.966356468483735 20.142165337998883 22.188922882168576 2 -2 -8
683 6 3 0.1716 12.21215814430161 13.47245602240752 23.01640100596851 2 -2 -8
669 6 4 -0.5760999999999999 11.07654335689304 11.26632665837412 27.972165011546515 2 -2 -8
167 3 3 0.1716 15.992131937834046 16.480324097100514 21.17861845111114 1 -2 -7
187 3 4 -0.5760999999999999 14.451674577371497 14.109618649957484 21.027341914590778 2 -2 -7
587 4 5 0.131 14.836051406193281 15.138910183968624 30.523928464896308 1 -2 -8
509 3 5 0.10745 14.624164067454831 18.564038257487326 23.539772355826063 1 -2 -7
682 6 3 0.1716 11.15118249099314 13.004639925033404 30.107043164888616 2 -2 -8
233 2 7 -0.398375 15.596616368724124 11.82112977746484 22.54007106582745 2 -1 -7
656 6 5 0.10745 13.84884993488627 14.73766792360229 25.752070676794588 2 -2 -8
340 3 7 -0.398375 19.091040749742206 17.719265165196877 22.852851682488737 1 -2 -7
623 4 3 -0.23 13.817516168142287 17.726426097078146 28.4850565093725 1 -2 -8
615 4 3 0.1716 14.023127360692671 16.95977273547564 29.69268930410372 1 -2 -8
631 4 5 0.131 13.033889868875441 18.47469208852076 28.412346379502868 1 -2 -8
653 4 5 0.10745 14.44610035652638 17.870371949165357 26.395803484689004 1 -2 -8
131 3 3 -0.1565 17.364239111532452 16.62340508335495 21.54118013258414 1 -2 -7
254 2 3 0.1716 16.410062989642164 12.370660575529339 23.557640650060648 2 -1 -7
328 3 4 -0.5760999999999999 18.9480311977142 17.899285997557026 25.011038964899047 1 -2 -8
434 2 1 0.6797 19.020174879331787 19.810588196533352 29.195716774343307 1 -2 -7
729 6 3 0.1716 13.149552132524406 14.681060593389626 24.9231934983463 2 -2 -8
568 4 3 -0.1565 14.759166634890864 15.742999113067874 29.62480450074038 1 -2 -8
203 2 5 0.131 15.845343330297649 14.39370753759523 23.093252386793964 2 -1 -7
103 3 5 0.131 18.123960485384124 16.110212535446475 20.959187496152367 1 -2 -7
211 2 7 -0.398375 19.6694604382496 11.297838713341214 24.549513190252128 2 -1 -7
659 6 3 -0.1565 12.136316009677547 15.654199176793703 24.77235041493395 2 -2 -8
486 3 5 0.131 14.027895397249027 16.95348788917649 21.82162716093207 1 -2 -7
229 2 8 0.23105 14.676795400404558 12.23346310637637 22.449859736731906 2 -1 -7
698 3 5 0.131 16.925157348808916 18.78145541500146 24.20756986751738 1 -2 -7
275 4 7 -0.398375 16.843546321569278 14.91918703248903 28.76497530144321 1 -2 -8
532 5 4 -0.5760999999999999 12.687635394403715 20.52121609712675 25.031576564831433 2 -2 -8
627 4 3 -0.1956 17.812927127750335 16.088038034474263 30.81957890549261 2 -1 -8
526 2 12 -0.5351 18.89156162956602 18.4928775145394 28.675743676007865 2 -2 -7
213 2 3 -0.23 18.591323613584684 12.127188556873875 24.549732117979275 2 -1 -7
198 4 8 0.23105 17.039884322164774 14.238918959865451 28.04184719470355 1 -2 -8
330 3 1 0.743425 19.672735221952706 17.57249126320098 24.120594950936493 1 -2 -8
521 2 14 0.4315 19.382858208815282 17.89837953857957 29.268886679596466 2 -2 -7
216 4 3 -0.23 15.465638143299662 16.359669418741344 27.420640386350204 1 -2 -8
563 4 3 0.1716 14.53459294858408 17.389813557860375 27.36559270407949 1 -2 -8
294 3 3 -0.1956 20.72608555854238 16.59280364246829 24.54581629182047 1 -2 -8
710 6 3 -0.23 11.099273176191774 11.752797750804381 30.808001849533795 2 -2 -8
119 3 3 -0.23 17.74837809502648 17.589807842655677 22.540440400124442 1 -2 -7
703 2 4 -0.5760999999999999 15.410967861318792 20.590401440479354 25.597055986257633 1 -2 -7
209 2 5 0.1816 18.313572124554693 11.590419552393282 21.975213374590254 2 -1 -7
236 2 3 0.1716 17.565681604550416 14.297560815826639 24.33108531055218 2 -1 -7
727 6 5 0.131 13.785704141015575 12.769342966394179 24.377151036825524 2 -2 -8
629 4 3 0.014 16.80364764269492 17.053710657170413 30.828220022499714 2 -1 -8
554 3 3 0.1716 15.409358998346589 18.024909971185224 23.01817068586698 1 -2 -7
184 3 4 -0.5760999999999999 13.651603054668776 12.550088560211012 27.167296796502455 2 -2 -8
180 3 3 -0.23 15.082060638825686 17.17780242118702 21.954582038236786 1 -2 -7
225 2 5 0.10745 17.579177614672822 15.361263087192189 24.54929365897233 2 -1 -7
598 2 8 0.23105 20.440018231058062 11.565837395830567 25.148382307355913 2 -1 -7
218 2 1 0.743425 15.80519270137186 10.779299101998326 21.58380609011499 2 -1 -7
141 3 7 -0.398375 14.652036294397146 12.145643275057866 29.135720952317055 2 -2 -8
256 2 3 -0.1565 18.643132067428 13.50782234189299 24.66602747397018 2 -1 -7
491 3 3 -0.1565 16.731014912480223 18.161118228288775 23.33765676558877 1 -2 -7
286 2 5 0.131 18.92485915548726 20.37807230917354 22.993699820165386 1 -2 -7
711 2 3 0.014 17.79503021957691 20.59378340904093 27.162145822098584 1 -2 -7
715 6 3 -0.23 13.066253895561355 13.54523596774957 24.132938459195064 2 -2 -8
517 3 8 0.23105 14.359472508438651 13.101520784038224 29.293619176354543 2 -2 -8
106 3 3 0.1716 14.833613401710558 11.28010739752942 30.213904046865594 2 -2 -8
470 6 3 -0.1565 11.855394595590132 14.055164169946469 30.703853160040854 2 -2 -8
172 4 4 -0.5760999999999999 16.208671413692112 20.253236619435363 30.56378889272221 2 -2 -8
705 5 3 -0.1565 12.794781054672859 20.79144522390861 21.921700621930526 2 -2 -8
670 6 3 -0.1565 11.397362082935283 14.619900260202773 22.75788501592594 2 -2 -8
728 6 8 0.23105 12.48397200499426 11.641684384543712 22.050026030632274 2 -2 -8
639 4 7 -0.398375 13.639722158069642 17.501599519403257 30.96595746749055 1 -2 -8
671 6 7 -0.398375 11.805753513067387 12.249174284214977 22.49184342885746 2 -2 -8
358 3 3 0.014 20.8416472333824 16.435274561107406 25.91554326789916 1 -2 -8
170 4 12 -0.5351 11.443596878499763 25.990175697351262 14.599216847126884 1 -2 -6
499 4 3 -0.1956 17.14031602099937 22.232777927075936 11.024855588951883 2 -2 -7
51 4 3 0.014 13.431529432768018 28.787590819275174 15.701960884214499 2 -2 -7
52 1 5 0.131 17.69993130682615 25.425984521375604 19.007422451576414 1 -2 -7
147 3 5 0.1816 17.66426940969449 29.918980933707928 15.305729741044098 2 -3 -7
242 2 4 -0.5760999999999999 14.950285287756893 30.69383797519705 20.815487815722715 2 -2 -7
38 1 4 -0.5760999999999999 19.83458754912418 25.296324484134377 16.95299404440064 1 -2 -7
156 1 8 0.23105 14.184224679939675 26.279686081468952 18.763188140267143 1 -2 -7
635 3 5 0.1816 11.401200115069598 23.54431063261225 16.47858792740363 2 -2 -7
66 4 3 -0.1956 13.864616243819556 29.477060657249737 16.85561166747233 2 -2 -7
459 3 3 -0.23 11.386037389838476 20.91479440184942 14.646879460375219 2 -2 -7
148 4 4 -0.5760999999999999 12.605738212362887 27.467381073923107 13.36486942965058 2 -2 -7
613 3 4 -0.5760999999999999 11.596127871431595 23.306688583937724 20.39718139610737 2 -2 -7
505 4 3 -0.1956 18.446584463721578 23.957848667521077 12.030629201910566 2 -2 -7
143 3 4 -0.5760999999999999 17.971857097970577 29.077793399260912 18.051508927213167 2 -3 -7
476 4 5 0.1816 18.05527039417911 25.970067030871263 11.592411941053012 2 -2 -7
495 4 4 -0.5760999999999999 20.01042157215676 25.07101254584238 13.332646594528857 2 -2 -7
539 4 5 0.1816 18.799250023513903 21.82208994512621 12.322545730486395 2 -2 -7
48 4 5 0.1816 13.956907276514752 28.972810245696586 14.76979633238422 2 -2 -7
528 6 8 0.23105 11.942552059236233 29.85520086109645 11.651066060209969 2 -3 -7
154 3 3 -0.1956 19.00639862438925 30.61734457123756 16.72282954413611 2 -3 -7
54 4 3 -0.1956 12.323758206893313 27.962610355192005 15.731829203859563 2 -2 -7
473 4 7 -0.398375 18.27763688707459 24.120924375313443 14.435474566469052 2 -2 -7
26 1 8 0.23105 19.369274450910602 22.434135238591292 18.163157917017692 1 -2 -7
691 4 5 0.131 17.66747649165592 21.422216577098258 14.19460225082182 2 -2 -7
79 1 3 0.1716 15.522556259575154 22.778217532723374 17.257234443642172 1 -2 -7
44 1 7 -0.398375 19.11738507183621 23.371327978506727 17.876019736371624 1 -2 -7
116 3 3 -0.1565 20.449725620397714 28.38965482590509 14.770866409077184 1 -3 -7
435 4 7 -0.398375 11.68849509477586 27.80487559622395 20.554754003338015 2 -2 -7
464 4 3 0.1716 17.02777136023657 23.533765664963852 14.386412972362663 2 -2 -7
632 3 1 0.743425 11.390930982554693 23.022009403135918 19.220194351541668 2 -2 -7
469 4 5 0.10745 13.73196664810814 24.448817723843838 13.878109578053227 2 -2 -7
516 4 3 0.014 18.226296706986506 22.57502212590147 11.789557805966773 2 -2 -7
553 4 3 0.014 17.7425630890966 24.964007021633957 11.329129151169717 2 -2 -7
117 3 3 -0.23 15.35484484215047 29.61790004221897 11.830977240891443 2 -3 -7
163 3 5 0.131 19.68935189389466 27.640912976800244 14.569680110943287 1 -3 -7
547 4 8 0.23105 18.57859501396201 24.46954808413377 15.336647709883069 2 -2 -7
707 4 3 0.1716 15.745400026517363 21.690238223510168 13.507820239971224 2 -2 -7
428 3 5 0.131 11.475349957269014 21.02414698184692 13.570160515303076 2 -2 -7
28 1 3 0.1716 17.738754099784906 23.63283556021065 17.890788239943603 1 -2 -7
96 4 3 0.014 13.167326766879906 29.28717469971607 18.052391552082945 2 -2 -7
502 4 1 0.743425 19.03684370628765 24.390672467816522 13.317537063200882 2 -2 -7
176 3 8 0.23105 20.132959306705313 27.558738443078006 17.609148344196175 1 -3 -7
518 4 5 0.131 15.908835480611813 25.411675503126105 14.450537085068689 2 -2 -7
545 6 7 -0.398375 11.567782763826969 30.534729436979738 12.30069340862602 2 -3 -7
166 1 5 0.10745 13.800973078800274 24.09926705619806 17.641478773438354 1 -2 -7
169 3 3 0.1716 14.383742590417235 29.37193182210362 10.866041588901155 2 -3 -7
648 5 3 -0.1565 14.452656701998372 21.312271110957717 20.113236319658956 2 -2 -8
22 4 5 0.1816 13.466103995946332 29.879620026843227 18.912042236801014 2 -2 -7
50 4 1 0.743425 14.814220534124559 30.6301232438339 16.649023819263007 2 -2 -7
32 1 3 -0.1565 17.07923987734234 24.718356548199644 18.465883742164667 1 -2 -7
7 4 1 0.6797 12.11094091087882 27.147167232934706 14.454309646747847 2 -2 -7
83 1 5 0.131 17.33876356608136 21.64921019936298 16.94359497508237 1 -2 -7
646 4 5 0.131 13.739844120205667 22.132309102275162 12.903933545828933 2 -2 -7
425 4 5 0.1816 10.893062393780442 26.962774284751283 17.03762148446651 2 -2 -7
128 4 14 0.4315 11.232230074552428 25.671659886460453 13.704515651767649 1 -2 -6
447 4 3 -0.1956 12.142122884333489 28.322635345177844 18.131458940470676 2 -2 -7
91 1 1 0.743425 20.099844267259563 24.17242781347096 17.286178455689097 1 -2 -7
690 4 3 -0.1565 14.618316080564949 22.508044953465117 13.420042435371471 2 -2 -7
72 4 4 -0.5760999999999999 15.107772190694064 30.810213855714686 15.452345101667992 2 -2 -7
195 3 5 0.131 15.544873319539555 28.858155394812172 12.58326411306948 2 -3 -7
100 3 3 0.014 18.385278449856624 30.703728222790907 15.51447947382951 2 -3 -7
731 3 5 0.10745 13.859187800600587 28.423540226662773 10.934264416785885 2 -3 -7
544 4 3 -0.1565 15.852534622452193 24.33196302145405 14.348995596449564 2 -2 -7
188 1 7 -0.4621 15.105248656028824 25.967307630739807 19.04311960736209 1 -2 -7
57 4 3 0.014 11.733109082351504 27.647415780244174 16.968007428881652 2 -2 -7
77 1 5 0.10745 15.017009402623664 22.056826285592557 16.622194527880833 1 -2 -7
90 1 3 -0.23 15.663083581738146 24.87081139157469 18.388412648136224 1 -2 -7
621 3 7 -0.398375 11.562903656569421 21.67598206466954 18.78063237225544 2 -2 -7
78 1 3 -0.1565 14.866018986286857 23.918423744519313 17.75207367200547 1 -2 -7
23 1 3 -0.23 16.956862895309502 22.582644939572795 17.346224808517107 1 -2 -7
714 4 3 -0.23 16.85650367954692 22.14437964147311 14.18671215281815 2 -2 -7
160 1 8 0.23105 15.734555062868598 26.759552888214195 19.019711424116217 1 -2 -7
101 3 7 -0.398375 20.001508471221563 28.42022397859209 17.094570584422815 1 -3 -7
178 3 1 0.743425 18.9888019943602 29.359523398568903 17.440883795362097 2 -3 -7
537 4 3 -0.23 14.608910336781861 23.812614499579688 13.952094268996044 2 -2 -7
636 3 8 0.23105 12.249633440520647 21.181648755247643 19.33584728114653 2 -2 -7
132 3 3 -0.23 15.997140826655553 30.851291535923856 11.862748628576407 2 -3 -7
611 3 3 0.1716 11.438980468407351 21.11588350295412 17.500889687615782 2 -2 -7
378 4 1 0.743425 11.260013469810945 28.067168274167862 19.27102135954694 2 -2 -7
522 4 1 0.743425 16.41374365902301 20.932907086098687 11.244543697538857 2 -2 -7
450 4 8 0.23105 12.688632415747065 27.84400693217892 20.704493508226207 2 -2 -7
359 3 8 0.23105 16.300151292846735 30.815962964635183 13.881022621240422 2 -3 -7
118 3 5 0.10745 20.67636872980279 28.79776849319716 12.632655727247046 1 -3 -7
730 5 5 0.10745 15.70000141662962 22.99114124732642 20.410634826725374 2 -2 -8
641 5 5 0.10745 14.934150197999017 21.110769369370168 19.16096535748753 2 -2 -8
688 5 3 0.1716 14.941834608139416 22.346000881788306 20.844495793396675 2 -2 -8
582 2 1 0.743425 17.487650053349178 26.521262343157403 22.38057999054216 2 -2 -7
257 2 3 0.014 18.206711008257628 30.81337333922827 21.968519384584603 2 -2 -7
365 2 5 0.1816 17.210806538283993 23.78701463787334 26.022893926629536 1 -2 -7
284 2 3 0.1716 17.6400226627436 22.130383691017855 23.355402306713547 1 -2 -7
350 2 3 -0.1565 18.786446028500514 21.450690348735588 22.895764010174958 1 -2 -7
471 4 3 0.1716 13.708194525461524 25.66196203628673 28.637447050213222 2 -2 -8
276 2 1 0.6797 18.914158788091857 24.641087990979752 27.852680670042794 1 -2 -7
249 2 3 0.014 18.951806525675327 22.261029834246617 28.563655863903158 1 -2 -7
460 3 3 -0.1956 14.577985708198014 29.291709422908035 25.545925721188667 2 -3 -8
212 2 5 0.131 17.177278471679315 30.809995982293557 24.42675061235699 2 -2 -7
293 2 3 -0.23 19.906309807542094 22.145927928390265 22.33996970637254 1 -2 -7
133 5 4 -0.5760999999999999 13.237583056453488 22.014970590365827 30.392940256034375 2 -2 -8
477 5 3 0.014 12.366207169483133 21.973648976088036 27.407525326400055 2 -2 -8
42 3 8 0.23105 17.729168596248645 28.61920356793795 29.011063858194923 1 -2 -8
617 2 5 0.1816 19.66908751892133 28.04152834787513 23.43440046134984 2 -2 -7
220 2 5 0.131 20.62229714146746 24.106004023175817 21.752637799931573 1 -2 -7
403 3 5 0.1816 16.236394196045257 27.89151824733817 25.16485330906125 2 -3 -8
548 4 3 -0.23 12.351015376041133 26.141649407487073 28.70127411998439 2 -2 -8
399 3 3 -0.1956 16.5994324826014 29.278986488514334 26.74660527177972 2 -3 -8
702 5 3 -0.23 14.354960092133828 22.713526807993336 22.0597820397169 2 -2 -8
24 2 5 0.1816 19.59033701402604 22.51152941966103 29.405551075484194 1 -2 -7
474 3 3 -0.23 14.104711477407538 30.3551026482005 30.191008981580946 2 -3 -8
709 5 3 0.1716 13.237201055692509 22.002793669430872 22.61695654503148 2 -2 -8
125 3 3 -0.1956 14.938664003807252 30.983155205806867 27.127241880690182 2 -3 -8
334 2 3 -0.23 17.575925214661197 23.487389722553488 23.20382368960628 1 -2 -7
479 4 5 0.131 15.366250471803996 25.161034931039566 27.271901173127468 2 -2 -8
40 3 3 0.1716 19.74148408657098 28.53068027430625 28.80448924717461 1 -2 -8
373 2 3 0.1716 18.6016604740961 24.198105612706037 22.63849544521875 1 -2 -7
590 2 8 0.23105 19.438376818025134 25.967464345243684 22.795452257444754 1 -2 -7
605 2 4 -0.5760999999999999 16.31739377771563 26.086627535842062 22.19619063736408 2 -2 -7
288 2 3 0.014 17.623233650651606 22.982082773628953 26.623932304894847 1 -2 -7
530 4 3 0.1716 11.541734588297711 26.39412452742286 27.554420286001868 2 -2 -8
543 4 5 0.10745 14.084145715774019 25.938125041752308 25.185770840870553 2 -2 -8
55 3 5 0.131 19.02823417266049 27.404220740531258 30.54432249854392 1 -2 -8
620 2 3 0.014 18.952136287602666 28.600986422597792 22.84089702259894 2 -2 -7
570 3 14 0.4315 11.891961192001697 29.133057925066275 23.733056145563488 2 -3 -7
306 2 1 0.743425 16.379795270918912 21.203375898398583 25.23611031815438 1 -2 -7
376 3 1 0.6797 13.680180198606035 28.870043081915625 24.46689490140881 2 -3 -8
432 3 3 0.014 15.856342231692564 28.738481105973023 25.728301335603614 2 -3 -8
377 4 5 0.131 11.74559445127587 26.55789692744734 25.35093190037856 2 -2 -8
449 3 1 0.743425 17.96457538230211 28.719324437343744 27.043715144021288 2 -3 -8
524 5 5 0.1816 13.209163104350825 21.29194821925017 27.470517711537916 2 -2 -8
161 5 1 0.743425 12.134229980085536 21.813845737365455 29.968368074989595 2 -2 -8
252 2 3 0.014 16.73740890046536 28.832972861678087 21.84230063300687 2 -2 -7
493 4 4 -0.5760999999999999 16.27271449080041 26.68830599949083 29.63253944711095 2 -2 -8
497 4 5 0.1816 15.674644341019315 22.83402915486316 29.905733654905728 2 -2 -8
612 2 7 -0.398375 18.53738630089109 25.582319809098472 22.54225832491898 1 -2 -7
149 5 3 -0.1956 11.781023559136203 22.33635783979733 28.594271721546907 2 -2 -8
214 2 3 -0.1956 19.165971874383274 30.008246081784428 22.674375655933634 2 -2 -7
717 5 7 -0.398375 12.633050686645475 22.486442667641793 23.797838783394642 2 -2 -8
251 2 3 -0.1565 19.771787746844502 23.533451258413535 22.11051435765041 1 -2 -7
258 2 3 -0.1956 16.980874928148587 30.23026813292619 21.658181728051105 2 -2 -7
201 2 14 0.4315 19.415060753586914 26.13943177463358 26.80357255968144 1 -2 -7
708 2 5 0.131 16.655625938883194 23.97219311651341 23.515710525421078 1 -2 -7
112 3 5 0.1816 16.829486563423963 30.81791097066101 28.235447402130134 2 -3 -8
455 3 4 -0.5760999999999999 18.596856809783127 28.306649374761655 26.052630709267 2 -3 -8
503 3 3 0.014 14.195995646163158 30.516223550146677 26.116738261822462 2 -3 -8
534 4 7 -0.398375 14.513939269858108 25.215196797129032 29.704097801492725 2 -2 -8
383 3 12 -0.5351 12.411793635049127 29.299327122188735 24.538505176890894 2 -3 -7
500 5 3 -0.1956 11.753619513151108 22.28306112308261 26.173346503992843 2 -2 -8
230 2 3 -0.1956 18.455626283244573 23.260136515120195 27.715060521282748 1 -2 -7
508 4 8 0.23105 14.255686263617505 24.36926165774978 30.195958969777596 2 -2 -8
99 2 4 -0.5760999999999999 19.207300351954217 25.075413178821286 28.912212845732366 1 -2 -7
439 4 5 0.131 12.353712740039985 25.488043972932633 21.633955358178376 2 -2 -7
423 3 4 -0.5760999999999999 14.094963919929576 28.28742743491523 23.503242107690554 2 -3 -8
210 2 12 -0.5351 19.18064519709384 25.209144731123324 26.641602241424003 1 -2 -7
272 2 3 -0.1956 17.76381280011479 27.99434285020589 22.32197219706293 2 -2 -7
513 4 3 -0.23 14.349613585506278 25.535312508964786 27.34689481470097 2 -2 -8
531 4 3 -0.1565 12.237206743836962 26.32666622471032 26.29120210527271 2 -2 -8
372 2 8 0.23105 15.889360641884766 21.270496493865892 23.214126378809166 1 -2 -7
573 2 1 0.743425 20.084009106987637 30.554965006437335 23.678075306061203 2 -2 -7
335 2 5 0.10745 20.78102985014474 21.524188828050285 22.173945874228075 1 -2 -7
354 2 3 -0.1956 17.324224168814084 21.600104454264233 26.323725097543207 1 -2 -7
527 3 5 0.131 13.411554212460315 30.13956552325287 29.38333634839269 2 -3 -8
68 3 3 -0.1565 19.855056784192627 27.887863146800534 30.032743720795352 1 -2 -8
538 4 3 -0.23 13.61701094467073 25.887024322535517 26.164766708264963 2 -2 -8
43 3 7 -0.398375 18.433610626344443 28.74735957237216 28.295826426890258 1 -2 -8
510 3 5 0.1816 13.228443610836631 30.935458248789033 25.85723152234155 2 -3 -8
234 2 5 0.1816 15.747122975054381 28.42263930514607 21.668465097018775 2 -2 -7
396 4 3 -0.23 11.386421195277757 25.85222786198476 21.96708565439878 2 -2 -7
515 4 1 0.743425 15.880771275638029 25.582420654551076 29.969771398936896 2 -2 -8
674 5 5 0.131 14.761458917794098 23.58883209757235 22.557635412968 2 -2 -8