LAMMPS (29 Aug 2024 - Update 1)
# Polymerization script for TMC carbon to MPD nitrogen
# Usage: Ensure call to LAMMPS is made from folder where data.lmps is saved, assume that reaction scripts are contained in ../../scripts from folder where data.lmps is saved.

# read_restart ../restarts/polym.restart.750000
# System
units            real
atom_style       full
dimension        3
newton           off
boundary         p p p
echo             none
Reading data file ...
  orthogonal box = (0 0 0) to (90 90 90)
  2 by 2 by 2 MPI processor grid
  reading atoms ...
  18 atoms
  scanning bonds ...
  3 = max bonds/atom
  scanning angles ...
  9 = max angles/atom
  scanning dihedrals ...
  20 = max dihedrals/atom
  scanning impropers ...
  11 = max impropers/atom
  orthogonal box = (0 0 0) to (90 90 90)
  2 by 2 by 2 MPI processor grid
  reading bonds ...
  18 bonds
  reading angles ...
  27 angles
  reading dihedrals ...
  45 dihedrals
  reading impropers ...
  18 impropers
Finding 1-2 1-3 1-4 neighbors ...
  special bond factors lj:    0        0        0       
  special bond factors coul:  0        0        0       
     3 = max # of 1-2 neighbors
     6 = max # of 1-3 neighbors
    12 = max # of 1-4 neighbors
    14 = max # of special neighbors
  special bonds CPU = 0.000 seconds
  read_data CPU = 0.005 seconds
WARNING: Ignoring 'compress yes' for molecular system (src/delete_atoms.cpp:141)
Deleted 18 atoms, new total = 0
Changing box ...
  orthogonal box = (0 0 0) to (90 90 90)
  orthogonal box = (0 0 0) to (90 90 90)
  orthogonal box = (0 0 0) to (90 90 90)
Lattice spacing in x,y,z = 11.3 11.3 11.3
Read molecule template MPDmol:
this is a moleule template for: mpd monomer
  1 molecules
  0 fragments
  16 atoms with max type 8
  16 bonds with max type 9
  24 angles with max type 25
  38 dihedrals with max type 9
  21 impropers with max type 9
Read molecule template TMCmol:
this is a molecule template for: whole tmc molecule
  1 molecules
  0 fragments
  18 atoms with max type 18
  18 bonds with max type 18
  27 angles with max type 24
  45 dihedrals with max type 31
  18 impropers with max type 5
Created 4800 atoms
  using lattice units in orthogonal box = (0 0 0) to (90 90 90)
  create_atoms CPU = 0.002 seconds
4800 atoms in group MPDs
Created 3600 atoms
  using lattice units in orthogonal box = (0 0 0) to (90 90 90)
  create_atoms CPU = 0.002 seconds
3600 atoms in group TMCs
Number of atoms in TMCs group: 3600
System init for delete_atoms ...
PPPM initialization ...
  using 12-bit tables for long-range coulomb (src/kspace.cpp:342)
  G vector (1/distance) = 0.23477525
  grid = 30 30 30
  stencil order = 5
  estimated absolute RMS force accuracy = 0.036638786
  estimated relative force accuracy = 0.00011033662
  using double precision KISS FFT
  3d grid and FFT values/proc = 8000 3600
Generated 153 of 153 mixed pair_coeff terms from sixthpower mixing rule
Neighbor list info ...
  update: every = 1 steps, delay = 0 steps, check = yes
  max neighbors/atom: 2000, page size: 100000
  master list distance cutoff = 11
  ghost atom cutoff = 11
  binsize = 5.5, bins = 17 17 17
  2 neighbor lists, perpetual/occasional/extra = 1 1 0
  (1) command delete_atoms, occasional
      attributes: full, newton off
      pair build: full/bin
      stencil: full/bin/3d
      bin: standard
  (2) pair lj/charmm/coul/long, perpetual
      attributes: half, newton off
      pair build: half/bin/newtoff
      stencil: full/bin/3d
      bin: standard
WARNING: Ignoring 'compress yes' for molecular system (src/delete_atoms.cpp:141)
Deleted 612 atoms, new total = 7788
Deleted 612 bonds, new total = 7788
Deleted 918 angles, new total = 11682
Deleted 1530 dihedrals, new total = 18870
Deleted 612 impropers, new total = 9288

CITE-CITE-CITE-CITE-CITE-CITE-CITE-CITE-CITE-CITE-CITE-CITE-CITE

Your simulation uses code contributions which should be cited:

- Type Label Framework: https://doi.org/10.1021/acs.jpcb.3c08419

@Article{Gissinger24,
 author = {Jacob R. Gissinger, Ilia Nikiforov, Yaser Afshar, Brendon Waters, Moon-ki Choi, Daniel S. Karls, Alexander Stukowski, Wonpil Im, Hendrik Heinz, Axel Kohlmeyer, and Ellad B. Tadmor},
 title = {Type Label Framework for Bonded Force Fields in LAMMPS},
 journal = {J. Phys. Chem. B},
 year =    2024,
 volume =  128,
 number =  13,
 pages =   {3282–-3297}
}

CITE-CITE-CITE-CITE-CITE-CITE-CITE-CITE-CITE-CITE-CITE-CITE-CITE

WARNING: No fixes with time integration, atoms won't move (src/verlet.cpp:60)
PPPM initialization ...
  using 12-bit tables for long-range coulomb (src/kspace.cpp:342)
  G vector (1/distance) = 0.23477422
  grid = 30 30 30
  stencil order = 5
  estimated absolute RMS force accuracy = 0.033778568
  estimated relative force accuracy = 0.00010172316
  using double precision KISS FFT
  3d grid and FFT values/proc = 8000 3600
Generated 153 of 153 mixed pair_coeff terms from sixthpower mixing rule
Neighbor list info ...
  update: every = 1 steps, delay = 0 steps, check = yes
  max neighbors/atom: 2000, page size: 100000
  master list distance cutoff = 11
  ghost atom cutoff = 11
  binsize = 5.5, bins = 17 17 17
  1 neighbor lists, perpetual/occasional/extra = 1 0 0
  (1) pair lj/charmm/coul/long, perpetual
      attributes: half, newton off
      pair build: half/bin/newtoff
      stencil: full/bin/3d
      bin: standard
Per MPI rank memory allocation (min/avg/max) = 20.27 | 20.29 | 20.3 Mbytes
   Step          Temp          E_pair         E_mol          TotEng         Press     
         0   0              40934.667      55086.671      96021.339      6953.0748    
Loop time of 1.427e-06 on 8 procs for 0 steps with 7788 atoms

113.9% CPU use with 8 MPI tasks x no OpenMP threads

MPI task timing breakdown:
Section |  min time  |  avg time  |  max time  |%varavg| %total
---------------------------------------------------------------
Pair    | 0          | 0          | 0          |   0.0 |  0.00
Bond    | 0          | 0          | 0          |   0.0 |  0.00
Kspace  | 0          | 0          | 0          |   0.0 |  0.00
Neigh   | 0          | 0          | 0          |   0.0 |  0.00
Comm    | 0          | 0          | 0          |   0.0 |  0.00
Output  | 0          | 0          | 0          |   0.0 |  0.00
Modify  | 0          | 0          | 0          |   0.0 |  0.00
Other   |            | 1.427e-06  |            |       |100.00

Nlocal:          973.5 ave        1149 max         811 min
Histogram: 1 1 0 0 3 0 2 0 0 1
Nghost:        2219.75 ave        2404 max        2142 min
Histogram: 2 2 1 1 1 0 0 0 0 1
Neighs:        42434.1 ave       51732 max       30821 min
Histogram: 1 0 1 0 0 2 1 2 0 1

Total # of neighbors = 339473
Ave neighs/atom = 43.58924
Ave special neighs/atom = 8.6409861
Neighbor list builds = 0
Dangerous builds = 0
Created 612 atoms
  using lattice units in orthogonal box = (0 0 0) to (90 90 90)
  create_atoms CPU = 0.001 seconds
3600 atoms in group TMCs
Number of atoms in TMCs group: 3600
System init for delete_atoms ...
PPPM initialization ...
  using 12-bit tables for long-range coulomb (src/kspace.cpp:342)
  G vector (1/distance) = 0.23477525
  grid = 30 30 30
  stencil order = 5
  estimated absolute RMS force accuracy = 0.036638786
  estimated relative force accuracy = 0.00011033662
  using double precision KISS FFT
  3d grid and FFT values/proc = 8000 3600
Generated 153 of 153 mixed pair_coeff terms from sixthpower mixing rule
Neighbor list info ...
  update: every = 1 steps, delay = 0 steps, check = yes
  max neighbors/atom: 2000, page size: 100000
  master list distance cutoff = 11
  ghost atom cutoff = 11
  binsize = 5.5, bins = 17 17 17
  2 neighbor lists, perpetual/occasional/extra = 1 1 0
  (1) command delete_atoms, occasional
      attributes: full, newton off
      pair build: full/bin
      stencil: full/bin/3d
      bin: standard
  (2) pair lj/charmm/coul/long, perpetual
      attributes: half, newton off
      pair build: half/bin/newtoff
      stencil: full/bin/3d
      bin: standard
WARNING: Ignoring 'compress yes' for molecular system (src/delete_atoms.cpp:141)
Deleted 216 atoms, new total = 8184
Deleted 216 bonds, new total = 8184
Deleted 324 angles, new total = 12276
Deleted 540 dihedrals, new total = 19860
Deleted 216 impropers, new total = 9684
WARNING: No fixes with time integration, atoms won't move (src/verlet.cpp:60)
PPPM initialization ...
  using 12-bit tables for long-range coulomb (src/kspace.cpp:342)
  G vector (1/distance) = 0.23477501
  grid = 30 30 30
  stencil order = 5
  estimated absolute RMS force accuracy = 0.035648089
  estimated relative force accuracy = 0.00010735316
  using double precision KISS FFT
  3d grid and FFT values/proc = 8000 3600
Generated 153 of 153 mixed pair_coeff terms from sixthpower mixing rule
Neighbor list info ...
  update: every = 1 steps, delay = 0 steps, check = yes
  max neighbors/atom: 2000, page size: 100000
  master list distance cutoff = 11
  ghost atom cutoff = 11
  binsize = 5.5, bins = 17 17 17
  1 neighbor lists, perpetual/occasional/extra = 1 0 0
  (1) pair lj/charmm/coul/long, perpetual
      attributes: half, newton off
      pair build: half/bin/newtoff
      stencil: full/bin/3d
      bin: standard
Per MPI rank memory allocation (min/avg/max) = 20.27 | 20.29 | 20.3 Mbytes
   Step          Temp          E_pair         E_mol          TotEng         Press     
         0   0              48342.898      61883.873      110226.77      8820.4317    
Loop time of 3.21337e-06 on 8 procs for 0 steps with 8184 atoms

97.2% CPU use with 8 MPI tasks x no OpenMP threads

MPI task timing breakdown:
Section |  min time  |  avg time  |  max time  |%varavg| %total
---------------------------------------------------------------
Pair    | 0          | 0          | 0          |   0.0 |  0.00
Bond    | 0          | 0          | 0          |   0.0 |  0.00
Kspace  | 0          | 0          | 0          |   0.0 |  0.00
Neigh   | 0          | 0          | 0          |   0.0 |  0.00
Comm    | 0          | 0          | 0          |   0.0 |  0.00
Output  | 0          | 0          | 0          |   0.0 |  0.00
Modify  | 0          | 0          | 0          |   0.0 |  0.00
Other   |            | 3.213e-06  |            |       |100.00

Nlocal:           1023 ave        1192 max         845 min
Histogram: 1 0 1 0 1 2 1 1 0 1
Nghost:        2355.38 ave        2534 max        2257 min
Histogram: 2 1 1 1 1 0 1 0 0 1
Neighs:        46414.1 ave       57214 max       33607 min
Histogram: 1 1 0 0 0 3 1 0 1 1

Total # of neighbors = 371313
Ave neighs/atom = 45.370601
Ave special neighs/atom = 8.6422287
Neighbor list builds = 0
Dangerous builds = 0
Created 216 atoms
  using lattice units in orthogonal box = (0 0 0) to (90 90 90)
  create_atoms CPU = 0.001 seconds
3600 atoms in group TMCs
Number of atoms in TMCs group: 3600
System init for delete_atoms ...
PPPM initialization ...
  using 12-bit tables for long-range coulomb (src/kspace.cpp:342)
  G vector (1/distance) = 0.23477525
  grid = 30 30 30
  stencil order = 5
  estimated absolute RMS force accuracy = 0.036638786
  estimated relative force accuracy = 0.00011033662
  using double precision KISS FFT
  3d grid and FFT values/proc = 8000 3600
Generated 153 of 153 mixed pair_coeff terms from sixthpower mixing rule
Neighbor list info ...
  update: every = 1 steps, delay = 0 steps, check = yes
  max neighbors/atom: 2000, page size: 100000
  master list distance cutoff = 11
  ghost atom cutoff = 11
  binsize = 5.5, bins = 17 17 17
  2 neighbor lists, perpetual/occasional/extra = 1 1 0
  (1) command delete_atoms, occasional
      attributes: full, newton off
      pair build: full/bin
      stencil: full/bin/3d
      bin: standard
  (2) pair lj/charmm/coul/long, perpetual
      attributes: half, newton off
      pair build: half/bin/newtoff
      stencil: full/bin/3d
      bin: standard
WARNING: Ignoring 'compress yes' for molecular system (src/delete_atoms.cpp:141)
Deleted 180 atoms, new total = 8220
Deleted 180 bonds, new total = 8220
Deleted 270 angles, new total = 12330
Deleted 450 dihedrals, new total = 19950
Deleted 180 impropers, new total = 9720
WARNING: No fixes with time integration, atoms won't move (src/verlet.cpp:60)
PPPM initialization ...
  using 12-bit tables for long-range coulomb (src/kspace.cpp:342)
  G vector (1/distance) = 0.23477506
  grid = 30 30 30
  stencil order = 5
  estimated absolute RMS force accuracy = 0.035814578
  estimated relative force accuracy = 0.00010785454
  using double precision KISS FFT
  3d grid and FFT values/proc = 8000 3600
Generated 153 of 153 mixed pair_coeff terms from sixthpower mixing rule
Neighbor list info ...
  update: every = 1 steps, delay = 0 steps, check = yes
  max neighbors/atom: 2000, page size: 100000
  master list distance cutoff = 11
  ghost atom cutoff = 11
  binsize = 5.5, bins = 17 17 17
  1 neighbor lists, perpetual/occasional/extra = 1 0 0
  (1) pair lj/charmm/coul/long, perpetual
      attributes: half, newton off
      pair build: half/bin/newtoff
      stencil: full/bin/3d
      bin: standard
Per MPI rank memory allocation (min/avg/max) = 20.27 | 20.29 | 20.3 Mbytes
   Step          Temp          E_pair         E_mol          TotEng         Press     
         0   0              67796.102      62501.8        130297.9       16105.827    
Loop time of 9.68763e-06 on 8 procs for 0 steps with 8220 atoms

100.6% CPU use with 8 MPI tasks x no OpenMP threads

MPI task timing breakdown:
Section |  min time  |  avg time  |  max time  |%varavg| %total
---------------------------------------------------------------
Pair    | 0          | 0          | 0          |   0.0 |  0.00
Bond    | 0          | 0          | 0          |   0.0 |  0.00
Kspace  | 0          | 0          | 0          |   0.0 |  0.00
Neigh   | 0          | 0          | 0          |   0.0 |  0.00
Comm    | 0          | 0          | 0          |   0.0 |  0.00
Output  | 0          | 0          | 0          |   0.0 |  0.00
Modify  | 0          | 0          | 0          |   0.0 |  0.00
Other   |            | 9.688e-06  |            |       |100.00

Nlocal:         1027.5 ave        1194 max         857 min
Histogram: 1 0 1 0 2 2 0 0 1 1
Nghost:        2357.25 ave        2518 max        2264 min
Histogram: 2 1 1 1 1 0 0 1 0 1
Neighs:        46432.2 ave       57220 max       34176 min
Histogram: 1 0 1 0 0 3 1 1 0 1

Total # of neighbors = 371458
Ave neighs/atom = 45.189538
Ave special neighs/atom = 8.6423358
Neighbor list builds = 0
Dangerous builds = 0
Created 180 atoms
  using lattice units in orthogonal box = (0 0 0) to (90 90 90)
  create_atoms CPU = 0.001 seconds
3600 atoms in group TMCs
Number of atoms in TMCs group: 3600
System init for delete_atoms ...
PPPM initialization ...
  using 12-bit tables for long-range coulomb (src/kspace.cpp:342)
  G vector (1/distance) = 0.23477525
  grid = 30 30 30
  stencil order = 5
  estimated absolute RMS force accuracy = 0.036638786
  estimated relative force accuracy = 0.00011033662
  using double precision KISS FFT
  3d grid and FFT values/proc = 8000 3600
Generated 153 of 153 mixed pair_coeff terms from sixthpower mixing rule
Neighbor list info ...
  update: every = 1 steps, delay = 0 steps, check = yes
  max neighbors/atom: 2000, page size: 100000
  master list distance cutoff = 11
  ghost atom cutoff = 11
  binsize = 5.5, bins = 17 17 17
  2 neighbor lists, perpetual/occasional/extra = 1 1 0
  (1) command delete_atoms, occasional
      attributes: full, newton off
      pair build: full/bin
      stencil: full/bin/3d
      bin: standard
  (2) pair lj/charmm/coul/long, perpetual
      attributes: half, newton off
      pair build: half/bin/newtoff
      stencil: full/bin/3d
      bin: standard
WARNING: Ignoring 'compress yes' for molecular system (src/delete_atoms.cpp:141)
Deleted 54 atoms, new total = 8346
Deleted 54 bonds, new total = 8346
Deleted 81 angles, new total = 12519
Deleted 135 dihedrals, new total = 20265
Deleted 54 impropers, new total = 9846
WARNING: No fixes with time integration, atoms won't move (src/verlet.cpp:60)
PPPM initialization ...
  using 12-bit tables for long-range coulomb (src/kspace.cpp:342)
  G vector (1/distance) = 0.2347752
  grid = 30 30 30
  stencil order = 5
  estimated absolute RMS force accuracy = 0.036392947
  estimated relative force accuracy = 0.00010959628
  using double precision KISS FFT
  3d grid and FFT values/proc = 8000 3600
Generated 153 of 153 mixed pair_coeff terms from sixthpower mixing rule
Neighbor list info ...
  update: every = 1 steps, delay = 0 steps, check = yes
  max neighbors/atom: 2000, page size: 100000
  master list distance cutoff = 11
  ghost atom cutoff = 11
  binsize = 5.5, bins = 17 17 17
  1 neighbor lists, perpetual/occasional/extra = 1 0 0
  (1) pair lj/charmm/coul/long, perpetual
      attributes: half, newton off
      pair build: half/bin/newtoff
      stencil: full/bin/3d
      bin: standard
Per MPI rank memory allocation (min/avg/max) = 20.27 | 20.29 | 20.3 Mbytes
   Step          Temp          E_pair         E_mol          TotEng         Press     
         0   0              67499.928      64664.546      132164.47      15688.958    
Loop time of 1.39063e-06 on 8 procs for 0 steps with 8346 atoms

98.9% CPU use with 8 MPI tasks x no OpenMP threads

MPI task timing breakdown:
Section |  min time  |  avg time  |  max time  |%varavg| %total
---------------------------------------------------------------
Pair    | 0          | 0          | 0          |   0.0 |  0.00
Bond    | 0          | 0          | 0          |   0.0 |  0.00
Kspace  | 0          | 0          | 0          |   0.0 |  0.00
Neigh   | 0          | 0          | 0          |   0.0 |  0.00
Comm    | 0          | 0          | 0          |   0.0 |  0.00
Output  | 0          | 0          | 0          |   0.0 |  0.00
Modify  | 0          | 0          | 0          |   0.0 |  0.00
Other   |            | 1.391e-06  |            |       |100.00

Nlocal:        1043.25 ave        1239 max         875 min
Histogram: 1 1 0 1 2 1 0 1 0 1
Nghost:        2383.12 ave        2544 max        2286 min
Histogram: 2 0 3 0 0 1 1 0 0 1
Neighs:        47489.5 ave       60691 max       34920 min
Histogram: 1 1 0 0 2 2 1 0 0 1

Total # of neighbors = 379916
Ave neighs/atom = 45.520728
Ave special neighs/atom = 8.6427031
Neighbor list builds = 0
Dangerous builds = 0
Created 54 atoms
  using lattice units in orthogonal box = (0 0 0) to (90 90 90)
  create_atoms CPU = 0.000 seconds
3600 atoms in group TMCs
Number of atoms in TMCs group: 3600
System init for delete_atoms ...
PPPM initialization ...
  using 12-bit tables for long-range coulomb (src/kspace.cpp:342)
  G vector (1/distance) = 0.23477525
  grid = 30 30 30
  stencil order = 5
  estimated absolute RMS force accuracy = 0.036638786
  estimated relative force accuracy = 0.00011033662
  using double precision KISS FFT
  3d grid and FFT values/proc = 8000 3600
Generated 153 of 153 mixed pair_coeff terms from sixthpower mixing rule
Neighbor list info ...
  update: every = 1 steps, delay = 0 steps, check = yes
  max neighbors/atom: 2000, page size: 100000
  master list distance cutoff = 11
  ghost atom cutoff = 11
  binsize = 5.5, bins = 17 17 17
  2 neighbor lists, perpetual/occasional/extra = 1 1 0
  (1) command delete_atoms, occasional
      attributes: full, newton off
      pair build: full/bin
      stencil: full/bin/3d
      bin: standard
  (2) pair lj/charmm/coul/long, perpetual
      attributes: half, newton off
      pair build: half/bin/newtoff
      stencil: full/bin/3d
      bin: standard
WARNING: Ignoring 'compress yes' for molecular system (src/delete_atoms.cpp:141)
Deleted 18 atoms, new total = 8382
Deleted 18 bonds, new total = 8382
Deleted 27 angles, new total = 12573
Deleted 45 dihedrals, new total = 20355
Deleted 18 impropers, new total = 9882
WARNING: No fixes with time integration, atoms won't move (src/verlet.cpp:60)
PPPM initialization ...
  using 12-bit tables for long-range coulomb (src/kspace.cpp:342)
  G vector (1/distance) = 0.23477523
  grid = 30 30 30
  stencil order = 5
  estimated absolute RMS force accuracy = 0.036556973
  estimated relative force accuracy = 0.00011009024
  using double precision KISS FFT
  3d grid and FFT values/proc = 8000 3600
Generated 153 of 153 mixed pair_coeff terms from sixthpower mixing rule
Neighbor list info ...
  update: every = 1 steps, delay = 0 steps, check = yes
  max neighbors/atom: 2000, page size: 100000
  master list distance cutoff = 11
  ghost atom cutoff = 11
  binsize = 5.5, bins = 17 17 17
  1 neighbor lists, perpetual/occasional/extra = 1 0 0
  (1) pair lj/charmm/coul/long, perpetual
      attributes: half, newton off
      pair build: half/bin/newtoff
      stencil: full/bin/3d
      bin: standard
Per MPI rank memory allocation (min/avg/max) = 20.27 | 20.29 | 20.3 Mbytes
   Step          Temp          E_pair         E_mol          TotEng         Press     
         0   0              67502.006      65282.473      132784.48      15606.225    
Loop time of 6.33338e-06 on 8 procs for 0 steps with 8382 atoms

102.6% CPU use with 8 MPI tasks x no OpenMP threads

MPI task timing breakdown:
Section |  min time  |  avg time  |  max time  |%varavg| %total
---------------------------------------------------------------
Pair    | 0          | 0          | 0          |   0.0 |  0.00
Bond    | 0          | 0          | 0          |   0.0 |  0.00
Kspace  | 0          | 0          | 0          |   0.0 |  0.00
Neigh   | 0          | 0          | 0          |   0.0 |  0.00
Comm    | 0          | 0          | 0          |   0.0 |  0.00
Output  | 0          | 0          | 0          |   0.0 |  0.00
Modify  | 0          | 0          | 0          |   0.0 |  0.00
Other   |            | 6.333e-06  |            |       |100.00

Nlocal:        1047.75 ave        1239 max         903 min
Histogram: 2 0 0 2 1 1 0 1 0 1
Nghost:        2390.88 ave        2544 max        2286 min
Histogram: 1 1 2 1 0 1 1 0 0 1
Neighs:        47802.2 ave       60691 max       36472 min
Histogram: 1 1 0 0 3 1 1 0 0 1

Total # of neighbors = 382418
Ave neighs/atom = 45.623717
Ave special neighs/atom = 8.642806
Neighbor list builds = 0
Dangerous builds = 0
Created 18 atoms
  using lattice units in orthogonal box = (0 0 0) to (90 90 90)
  create_atoms CPU = 0.001 seconds
3600 atoms in group TMCs
Number of atoms in TMCs group: 3600
System init for delete_atoms ...
PPPM initialization ...
  using 12-bit tables for long-range coulomb (src/kspace.cpp:342)
  G vector (1/distance) = 0.23477525
  grid = 30 30 30
  stencil order = 5
  estimated absolute RMS force accuracy = 0.036638786
  estimated relative force accuracy = 0.00011033662
  using double precision KISS FFT
  3d grid and FFT values/proc = 8000 3600
Generated 153 of 153 mixed pair_coeff terms from sixthpower mixing rule
Neighbor list info ...
  update: every = 1 steps, delay = 0 steps, check = yes
  max neighbors/atom: 2000, page size: 100000
  master list distance cutoff = 11
  ghost atom cutoff = 11
  binsize = 5.5, bins = 17 17 17
  2 neighbor lists, perpetual/occasional/extra = 1 1 0
  (1) command delete_atoms, occasional
      attributes: full, newton off
      pair build: full/bin
      stencil: full/bin/3d
      bin: standard
  (2) pair lj/charmm/coul/long, perpetual
      attributes: half, newton off
      pair build: half/bin/newtoff
      stencil: full/bin/3d
      bin: standard
WARNING: Ignoring 'compress yes' for molecular system (src/delete_atoms.cpp:141)
Deleted 0 atoms, new total = 8400
Deleted 0 bonds, new total = 8400
Deleted 0 angles, new total = 12600
Deleted 0 dihedrals, new total = 20400
Deleted 0 impropers, new total = 9900
WARNING: No fixes with time integration, atoms won't move (src/verlet.cpp:60)
PPPM initialization ...
  using 12-bit tables for long-range coulomb (src/kspace.cpp:342)
  G vector (1/distance) = 0.23477525
  grid = 30 30 30
  stencil order = 5
  estimated absolute RMS force accuracy = 0.036638786
  estimated relative force accuracy = 0.00011033662
  using double precision KISS FFT
  3d grid and FFT values/proc = 8000 3600
Generated 153 of 153 mixed pair_coeff terms from sixthpower mixing rule
Neighbor list info ...
  update: every = 1 steps, delay = 0 steps, check = yes
  max neighbors/atom: 2000, page size: 100000
  master list distance cutoff = 11
  ghost atom cutoff = 11
  binsize = 5.5, bins = 17 17 17
  1 neighbor lists, perpetual/occasional/extra = 1 0 0
  (1) pair lj/charmm/coul/long, perpetual
      attributes: half, newton off
      pair build: half/bin/newtoff
      stencil: full/bin/3d
      bin: standard
Per MPI rank memory allocation (min/avg/max) = 20.27 | 20.29 | 20.3 Mbytes
   Step          Temp          E_pair         E_mol          TotEng         Press     
         0   0              67493.357      65591.437      133084.79      15560.136    
Loop time of 3.24487e-06 on 8 procs for 0 steps with 8400 atoms

111.7% CPU use with 8 MPI tasks x no OpenMP threads

MPI task timing breakdown:
Section |  min time  |  avg time  |  max time  |%varavg| %total
---------------------------------------------------------------
Pair    | 0          | 0          | 0          |   0.0 |  0.00
Bond    | 0          | 0          | 0          |   0.0 |  0.00
Kspace  | 0          | 0          | 0          |   0.0 |  0.00
Neigh   | 0          | 0          | 0          |   0.0 |  0.00
Comm    | 0          | 0          | 0          |   0.0 |  0.00
Output  | 0          | 0          | 0          |   0.0 |  0.00
Modify  | 0          | 0          | 0          |   0.0 |  0.00
Other   |            | 3.245e-06  |            |       |100.00

Nlocal:           1050 ave        1239 max         903 min
Histogram: 2 0 0 1 2 1 0 1 0 1
Nghost:        2390.88 ave        2544 max        2286 min
Histogram: 1 1 2 1 0 1 1 0 0 1
Neighs:          47918 ave       60691 max       36472 min
Histogram: 1 1 0 0 3 1 1 0 0 1

Total # of neighbors = 383344
Ave neighs/atom = 45.63619
Ave special neighs/atom = 8.6428571
Neighbor list builds = 0
Dangerous builds = 0

WARNING: 'reset_atom_ids' has been renamed to 'reset_atoms id'. Please update your input.

Resetting atom IDs ...
PPPM initialization ...
  using 12-bit tables for long-range coulomb (src/kspace.cpp:342)
  G vector (1/distance) = 0.23477525
  grid = 30 30 30
  stencil order = 5
  estimated absolute RMS force accuracy = 0.036638786
  estimated relative force accuracy = 0.00011033662
  using double precision KISS FFT
  3d grid and FFT values/proc = 8000 3600
Generated 153 of 153 mixed pair_coeff terms from sixthpower mixing rule
Finding 1-2 1-3 1-4 neighbors ...
  special bond factors lj:    0        0        0       
  special bond factors coul:  0        0        0       
     3 = max # of 1-2 neighbors
     6 = max # of 1-3 neighbors
    12 = max # of 1-4 neighbors
    14 = max # of special neighbors
  special bonds CPU = 0.001 seconds
PPPM initialization ...
  using 12-bit tables for long-range coulomb (src/kspace.cpp:342)
  G vector (1/distance) = 0.23477525
  grid = 30 30 30
  stencil order = 5
  estimated absolute RMS force accuracy = 0.036638786
  estimated relative force accuracy = 0.00011033662
  using double precision KISS FFT
  3d grid and FFT values/proc = 8000 3600
Generated 153 of 153 mixed pair_coeff terms from sixthpower mixing rule
Per MPI rank memory allocation (min/avg/max) = 21.4 | 21.42 | 21.43 Mbytes
   Step          Temp          E_pair         E_mol          TotEng         Press     
         0   0              67493.357      65591.437      133084.79      15560.136    
       507   0              5480.3035      4259.7972      9740.1007     -74.201031    
Loop time of 2.20188 on 8 procs for 507 steps with 8400 atoms

98.1% CPU use with 8 MPI tasks x no OpenMP threads

Minimization stats:
  Stopping criterion = energy tolerance
  Energy initial, next-to-last, final = 
      133084.793625866   9740.17842750014   9740.10071462758
  Force two-norm initial, final = 258444.81 35.308725
  Force max component initial, final = 140334.82 2.7716358
  Final line search alpha, max atom move = 0.11272039 0.31241988
  Iterations, force evaluations = 507 1001

MPI task timing breakdown:
Section |  min time  |  avg time  |  max time  |%varavg| %total
---------------------------------------------------------------
Pair    | 0.57073    | 0.76644    | 0.96535    |  12.4 | 34.81
Bond    | 0.1899     | 0.22572    | 0.26278    |   4.5 | 10.25
Kspace  | 0.90735    | 1.1434     | 1.3762     |  12.1 | 51.93
Neigh   | 0.0023471  | 0.0023643  | 0.0023804  |   0.0 |  0.11
Comm    | 0.030063   | 0.031972   | 0.033645   |   0.7 |  1.45
Output  | 0          | 0          | 0          |   0.0 |  0.00
Modify  | 0          | 0          | 0          |   0.0 |  0.00
Other   |            | 0.03204    |            |       |  1.45

Nlocal:           1050 ave        1242 max         900 min
Histogram: 1 1 0 1 2 1 1 0 0 1
Nghost:           2392 ave        2548 max        2290 min
Histogram: 2 0 2 1 0 2 0 0 0 1
Neighs:        47925.1 ave       60797 max       36397 min
Histogram: 1 1 0 0 3 1 1 0 0 1

Total # of neighbors = 383401
Ave neighs/atom = 45.642976
Ave special neighs/atom = 8.6428571
Neighbor list builds = 1
Dangerous builds = 0
PPPM initialization ...
  using 12-bit tables for long-range coulomb (src/kspace.cpp:342)
  G vector (1/distance) = 0.23477525
  grid = 30 30 30
  stencil order = 5
  estimated absolute RMS force accuracy = 0.036638786
  estimated relative force accuracy = 0.00011033662
  using double precision KISS FFT
  3d grid and FFT values/proc = 8000 3600
Generated 153 of 153 mixed pair_coeff terms from sixthpower mixing rule
Per MPI rank memory allocation (min/avg/max) = 21.4 | 21.42 | 21.43 Mbytes
   Step          Temp          E_pair         E_mol          TotEng         Press     
       507   0              5480.3035      4259.7972      9740.1007     -74.201031    
      3842   0              641.00569      4373.818       5014.8237     -17.919249    
Loop time of 18.8897 on 8 procs for 3335 steps with 8400 atoms

98.5% CPU use with 8 MPI tasks x no OpenMP threads

Minimization stats:
  Stopping criterion = linesearch alpha is zero
  Energy initial, next-to-last, final = 
      9740.10071462761   5014.82369325195   5014.82369325195
  Force two-norm initial, final = 35.308725 21.217125
  Force max component initial, final = 2.7716358 2.1781947
  Final line search alpha, max atom move = 2.65568e-11 5.7845882e-11
  Iterations, force evaluations = 3335 6772

MPI task timing breakdown:
Section |  min time  |  avg time  |  max time  |%varavg| %total
---------------------------------------------------------------
Pair    | 5.2258     | 8.0104     | 10.535     |  58.5 | 42.41
Bond    | 1.1439     | 1.4537     | 1.7266     |  14.2 |  7.70
Kspace  | 5.911      | 8.7102     | 11.808     |  61.9 | 46.11
Neigh   | 0.259      | 0.25961    | 0.26033    |   0.1 |  1.37
Comm    | 0.2253     | 0.22895    | 0.23136    |   0.5 |  1.21
Output  | 0          | 0          | 0          |   0.0 |  0.00
Modify  | 0          | 0          | 0          |   0.0 |  0.00
Other   |            | 0.2269     |            |       |  1.20

Nlocal:           1050 ave        1311 max         682 min
Histogram: 1 0 0 0 2 1 1 1 1 1
Nghost:        2503.25 ave        2860 max        2079 min
Histogram: 2 0 1 0 1 0 0 1 0 3
Neighs:          89493 ave      120415 max       51261 min
Histogram: 1 0 1 0 2 0 1 0 2 1

Total # of neighbors = 715944
Ave neighs/atom = 85.231429
Ave special neighs/atom = 8.6428571
Neighbor list builds = 98
Dangerous builds = 0
System init for write_data ...
PPPM initialization ...
  using 12-bit tables for long-range coulomb (src/kspace.cpp:342)
  G vector (1/distance) = 0.23477525
  grid = 30 30 30
  stencil order = 5
  estimated absolute RMS force accuracy = 0.036638786
  estimated relative force accuracy = 0.00011033662
  using double precision KISS FFT
  3d grid and FFT values/proc = 8000 3600
Generated 153 of 153 mixed pair_coeff terms from sixthpower mixing rule
Read molecule template mol1:
this is a molecule template for: initial mpdtmc crosslink, pre-reacting
  1 molecules
  0 fragments
  20 atoms with max type 18
  18 bonds with max type 18
  24 angles with max type 25
  25 dihedrals with max type 31
  7 impropers with max type 9
Read molecule template mol2:
this is a molecule template for: initial mpdtmc crosslink, post-reacting
  1 molecules
  0 fragments
  20 atoms with max type 18
  17 bonds with max type 13
  24 angles with max type 14
  27 dihedrals with max type 21
  8 impropers with max type 7
600 atoms in group NUM_AMIDE
WARNING: Fix bond/react: The BondingIDs section title has been deprecated. Please use InitiatorIDs instead. (src/REACTION/fix_bond_react.cpp:4033)
dynamic group bond_react_MASTER_group defined
dynamic group statted_grp_REACT defined
==================================Current bonds formed = 0 Minimum bonds desired = 558=======================================
==================================NVT PA POLYMERIZATION RUN: 300 C===============================

CITE-CITE-CITE-CITE-CITE-CITE-CITE-CITE-CITE-CITE-CITE-CITE-CITE

Your simulation uses code contributions which should be cited:

- fix bond/react: reacter.org doi:10.1016/j.polymer.2017.09.038, doi:10.1021/acs.macromol.0c02012, doi:10.1016/j.cpc.2024.109287

@Article{Gissinger17,
 author = {J. R. Gissinger and B. D. Jensen and K. E. Wise},
 title = {Modeling Chemical Reactions in Classical Molecular Dynamics Simulations},
 journal = {Polymer},
 year =    2017,
 volume =  128,
 pages =   {211--217}
}

@Article{Gissinger20,
 author = {J. R. Gissinger, B. D. Jensen, K. E. Wise},
 title = {{REACTER}: A Heuristic Method for Reactive Molecular Dynamics},
 journal = {Macromolecules},
 year =    2020,
 volume =  53,
 number =  22,
 pages =   {9953--9961}
}

@Article{Gissinger24,
 author = {J. R. Gissinger, B. D. Jensen, K. E. Wise},
 title = {Molecular Modeling of Reactive Systems with REACTER},
 journal = {Computer Physics Communications},
 year =    2024,
 volume =  304,
 number =  109287
}

CITE-CITE-CITE-CITE-CITE-CITE-CITE-CITE-CITE-CITE-CITE-CITE-CITE

PPPM initialization ...
  using 12-bit tables for long-range coulomb (src/kspace.cpp:342)
  G vector (1/distance) = 0.23477525
  grid = 30 30 30
  stencil order = 5
  estimated absolute RMS force accuracy = 0.036638786
  estimated relative force accuracy = 0.00011033662
  using double precision KISS FFT
  3d grid and FFT values/proc = 8000 3600
Generated 153 of 153 mixed pair_coeff terms from sixthpower mixing rule
Neighbor list info ...
  update: every = 1 steps, delay = 0 steps, check = yes
  max neighbors/atom: 2000, page size: 100000
  master list distance cutoff = 11
  ghost atom cutoff = 11
  binsize = 5.5, bins = 17 17 17
  2 neighbor lists, perpetual/occasional/extra = 1 1 0
  (1) pair lj/charmm/coul/long, perpetual
      attributes: half, newton off
      pair build: half/bin/newtoff
      stencil: full/bin/3d
      bin: standard
  (2) fix bond/react, occasional, copy from (1)
      attributes: half, newton off
      pair build: copy
      stencil: none
      bin: none
Per MPI rank memory allocation (min/avg/max) = 20.74 | 20.92 | 21.24 Mbytes
   Step          Temp          Press         Density       f_PArxn[1]  
      3842   300            453.04556      0.19483657     0            
WARNING: System is not charge neutral, net charge = 6.9237 (src/kspace.cpp:327)
      3900   346.41399     -781.67306      0.1822137      152          
      4000   497.3316      -2422.7285      0.17199915     275          
      4100   561.35723     -968.60109      0.16909256     310          
      4200   503.69184     -264.17342      0.16876038     314          
      4300   427.9059      -710.95094      0.16851125     317          
      4400   377.50097     -705.66032      0.1684282      318          
      4500   334.84569     -949.83477      0.16826211     320          
      4600   301.66443     -501.65593      0.16809602     322          
      4700   280.74508     -469.23951      0.16801298     323          
      4800   268.64697     -318.2421       0.16784689     325          
      4842   271.08332      108.73709      0.16784689     325          
Loop time of 2.71067 on 8 procs for 1000 steps with 7750 atoms

Performance: 31.874 ns/day, 0.753 hours/ns, 368.913 timesteps/s, 2.859 Matom-step/s
99.5% CPU use with 8 MPI tasks x no OpenMP threads

MPI task timing breakdown:
Section |  min time  |  avg time  |  max time  |%varavg| %total
---------------------------------------------------------------
Pair    | 0.48071    | 0.82037    | 1.1001     |  22.7 | 30.26
Bond    | 0.12582    | 0.18346    | 0.23006    |   7.1 |  6.77
Kspace  | 0.75796    | 1.0298     | 1.3545     |  19.6 | 37.99
Neigh   | 0.23612    | 0.23635    | 0.23661    |   0.0 |  8.72
Comm    | 0.034487   | 0.035115   | 0.036434   |   0.4 |  1.30
Output  | 0.00015675 | 0.0001968  | 0.00044738 |   0.0 |  0.01
Modify  | 0.34715    | 0.40148    | 0.47475    |   5.9 | 14.81
Other   |            | 0.003922   |            |       |  0.14

Nlocal:         968.75 ave        1251 max         655 min
Histogram: 1 0 1 1 2 0 0 2 0 1
Nghost:        2308.75 ave        2676 max        1979 min
Histogram: 1 2 0 1 0 0 0 2 1 1
Neighs:        67899.8 ave       92503 max       40626 min
Histogram: 1 1 0 0 3 0 0 0 2 1

Total # of neighbors = 543198
Ave neighs/atom = 70.090065
Ave special neighs/atom = 9.6193548
Neighbor list builds = 90
Dangerous builds = 0
PPPM initialization ...
  using 12-bit tables for long-range coulomb (src/kspace.cpp:342)
  G vector (1/distance) = 0.23477545
  grid = 30 30 30
  stencil order = 5
  estimated absolute RMS force accuracy = 0.037936783
  estimated relative force accuracy = 0.00011424549
  using double precision KISS FFT
  3d grid and FFT values/proc = 8000 3600
Generated 153 of 153 mixed pair_coeff terms from sixthpower mixing rule
WARNING: Inconsistent image flags (src/domain.cpp:1051)
Per MPI rank memory allocation (min/avg/max) = 21.69 | 22.01 | 22.57 Mbytes
   Step          Temp          Press         Density       f_PArxn[1]  
      4842   293.82228      108.73711      0.16784689     325          
      4900   296.25556     -1640.6957      0.17087378     330          
      5000   331.14655     -485.49138      0.19192605     332          
      5100   327.28492     -407.8256       0.2016071      333          
      5200   323.92045     -33.329143      0.21208378     334          
      5300   306.28132     -595.2698       0.21859205     335          
      5400   306.62843     -697.97592      0.22867361     336          
      5500   307.01424     -2054.1439      0.24726976     340          
      5600   331.74175     -1029.0007      0.28063685     343          
      5700   324.28662     -720.18366      0.29965928     344          
      5800   319.85591     -902.34919      0.31582166     346          
      5842   320.87862     -350.13068      0.3263754      346          
Loop time of 3.72353 on 8 procs for 1000 steps with 7708 atoms

Performance: 23.204 ns/day, 1.034 hours/ns, 268.562 timesteps/s, 2.070 Matom-step/s
99.6% CPU use with 8 MPI tasks x no OpenMP threads

MPI task timing breakdown:
Section |  min time  |  avg time  |  max time  |%varavg| %total
---------------------------------------------------------------
Pair    | 0.76559    | 1.2742     | 1.6938     |  25.2 | 34.22
Bond    | 0.22665    | 0.32129    | 0.41912    |   9.9 |  8.63
Kspace  | 0.78283    | 1.302      | 1.9055     |  29.7 | 34.97
Neigh   | 0.34023    | 0.34057    | 0.34114    |   0.1 |  9.15
Comm    | 0.038407   | 0.040225   | 0.042108   |   0.6 |  1.08
Output  | 0.00014313 | 0.00016692 | 0.00031892 |   0.0 |  0.00
Modify  | 0.44002    | 0.44033    | 0.44068    |   0.0 | 11.83
Other   |            | 0.004746   |            |       |  0.13

Nlocal:          963.5 ave        1290 max         712 min
Histogram: 1 0 2 1 1 1 1 0 0 1
Nghost:        3148.75 ave        3557 max        2878 min
Histogram: 3 0 1 0 0 2 0 1 0 1
Neighs:        96838.8 ave      139843 max       62896 min
Histogram: 1 1 0 3 0 0 1 1 0 1

Total # of neighbors = 774710
Ave neighs/atom = 100.50727
Ave special neighs/atom = 9.6881162
Neighbor list builds = 104
Dangerous builds = 0

WARNING: 'reset_atom_ids' has been renamed to 'reset_atoms id'. Please update your input.

Resetting atom IDs ...
PPPM initialization ...
  using 12-bit tables for long-range coulomb (src/kspace.cpp:342)
  G vector (1/distance) = 0.23865426
  grid = 25 25 25
  stencil order = 5
  estimated absolute RMS force accuracy = 0.045941822
  estimated relative force accuracy = 0.00013835243
  using double precision KISS FFT
  3d grid and FFT values/proc = 5832 2500
Generated 153 of 153 mixed pair_coeff terms from sixthpower mixing rule
Finding 1-2 1-3 1-4 neighbors ...
  special bond factors lj:    0        0        0       
  special bond factors coul:  0        0        0       
     3 = max # of 1-2 neighbors
     6 = max # of 1-3 neighbors
    12 = max # of 1-4 neighbors
    14 = max # of special neighbors
  special bonds CPU = 0.001 seconds
==================================Current bonds formed = 346 Minimum bonds desired = 558=======================================
==================================NVT PA POLYMERIZATION RUN: 300 C===============================
PPPM initialization ...
  using 12-bit tables for long-range coulomb (src/kspace.cpp:342)
  G vector (1/distance) = 0.23865426
  grid = 25 25 25
  stencil order = 5
  estimated absolute RMS force accuracy = 0.045941822
  estimated relative force accuracy = 0.00013835243
  using double precision KISS FFT
  3d grid and FFT values/proc = 5832 2500
Generated 153 of 153 mixed pair_coeff terms from sixthpower mixing rule
WARNING: Inconsistent image flags (src/domain.cpp:1051)
Per MPI rank memory allocation (min/avg/max) = 21.59 | 21.9 | 22.4 Mbytes
   Step          Temp          Press         Density       f_PArxn[1]  
      5842   300           -412.20872      0.3263754      346          
      5900   299.75167     -1512.2518      0.32604905     348          
      6000   318.27753     -1037.0915      0.32588588     349          
      6100   315.59603     -1038.5564      0.32555953     351          
      6200   323.2155      -178.1377       0.32555953     351          
      6300   316.66888     -904.98322      0.32507        354          
      6400   312.27078     -874.64111      0.32490683     355          
      6500   319.14938     -951.03153      0.3244173      358          
      6600   317.61805     -182.13927      0.32409095     360          
      6700   315.95083     -1031.4786      0.3237646      362          
      6800   319.87373     -961.20783      0.32327507     365          
      6842   327.50425      331.63915      0.32327507     365          
Loop time of 3.12232 on 8 procs for 1000 steps with 7670 atoms

Performance: 27.672 ns/day, 0.867 hours/ns, 320.274 timesteps/s, 2.457 Matom-step/s
99.6% CPU use with 8 MPI tasks x no OpenMP threads

MPI task timing breakdown:
Section |  min time  |  avg time  |  max time  |%varavg| %total
---------------------------------------------------------------
Pair    | 0.69224    | 1.0515     | 1.4986     |  24.0 | 33.68
Bond    | 0.14334    | 0.18444    | 0.23849    |   6.4 |  5.91
Kspace  | 0.6357     | 1.0708     | 1.4188     |  23.2 | 34.29
Neigh   | 0.34689    | 0.34714    | 0.34734    |   0.0 | 11.12
Comm    | 0.039976   | 0.040785   | 0.043003   |   0.6 |  1.31
Output  | 0.00017262 | 0.00020808 | 0.00043246 |   0.0 |  0.01
Modify  | 0.35568    | 0.42392    | 0.47709    |   5.3 | 13.58
Other   |            | 0.003599   |            |       |  0.12

Nlocal:         958.75 ave        1260 max         697 min
Histogram: 1 0 2 0 2 1 1 0 0 1
Nghost:        3168.12 ave        3507 max        2904 min
Histogram: 2 1 1 0 0 0 1 2 0 1
Neighs:        96666.8 ave      139119 max       61302 min
Histogram: 1 1 0 2 1 0 2 0 0 1

Total # of neighbors = 773334
Ave neighs/atom = 100.82581
Ave special neighs/atom = 9.7509778
Neighbor list builds = 87
Dangerous builds = 0
PPPM initialization ...
  using 12-bit tables for long-range coulomb (src/kspace.cpp:342)
  G vector (1/distance) = 0.23865461
  grid = 25 25 25
  stencil order = 5
  estimated absolute RMS force accuracy = 0.046039561
  estimated relative force accuracy = 0.00013864677
  using double precision KISS FFT
  3d grid and FFT values/proc = 5832 2500
Generated 153 of 153 mixed pair_coeff terms from sixthpower mixing rule
WARNING: Inconsistent image flags (src/domain.cpp:1051)
Per MPI rank memory allocation (min/avg/max) = 21.59 | 21.9 | 22.4 Mbytes
   Step          Temp          Press         Density       f_PArxn[1]  
      6842   329.12703      331.63919      0.32327507     365          
      6900   323.84108     -470.60847      0.32720936     367          
      7000   330.52193     -1745.2603      0.34426966     370          
      7100   344.91376     -28.074259      0.37423528     372          
      7200   323.24641     -1477.9442      0.38541818     374          
      7300   326.13792      177.77631      0.4056373      375          
      7400   304.43631     -1152.4436      0.42011919     377          
      7500   319.25102     -315.07908      0.45666107     380          
      7600   313.42311      119.55533      0.47664603     380          
      7700   303.65806     -2282.3505      0.48803693     383          
      7800   311.60574     -3866.776       0.52763409     388          
      7842   330.54297     -886.78944      0.55000892     388          
Loop time of 4.60914 on 8 procs for 1000 steps with 7624 atoms

Performance: 18.745 ns/day, 1.280 hours/ns, 216.960 timesteps/s, 1.654 Matom-step/s
99.6% CPU use with 8 MPI tasks x no OpenMP threads

MPI task timing breakdown:
Section |  min time  |  avg time  |  max time  |%varavg| %total
---------------------------------------------------------------
Pair    | 1.0686     | 1.7292     | 2.4516     |  27.9 | 37.52
Bond    | 0.23733    | 0.32502    | 0.4266     |   9.0 |  7.05
Kspace  | 0.64872    | 1.4736     | 2.2228     |  34.4 | 31.97
Neigh   | 0.54385    | 0.54466    | 0.54522    |   0.1 | 11.82
Comm    | 0.046559   | 0.047544   | 0.048171   |   0.3 |  1.03
Output  | 0.00017267 | 0.00019884 | 0.00037121 |   0.0 |  0.00
Modify  | 0.48386    | 0.48433    | 0.48466    |   0.0 | 10.51
Other   |            | 0.004594   |            |       |  0.10

Nlocal:            953 ave        1222 max         696 min
Histogram: 1 0 0 3 0 2 1 0 0 1
Nghost:        4086.88 ave        4337 max        3857 min
Histogram: 1 2 1 0 0 1 0 0 1 2
Neighs:         143430 ave      202422 max       93612 min
Histogram: 1 1 0 0 3 2 0 0 0 1

Total # of neighbors = 1147436
Ave neighs/atom = 150.50315
Ave special neighs/atom = 9.8279119
Neighbor list builds = 111
Dangerous builds = 0

WARNING: 'reset_atom_ids' has been renamed to 'reset_atoms id'. Please update your input.

Resetting atom IDs ...
PPPM initialization ...
  using 12-bit tables for long-range coulomb (src/kspace.cpp:342)
  G vector (1/distance) = 0.25136938
  grid = 24 24 24
  stencil order = 5
  estimated absolute RMS force accuracy = 0.036566441
  estimated relative force accuracy = 0.00011011875
  using double precision KISS FFT
  3d grid and FFT values/proc = 4913 1728
Generated 153 of 153 mixed pair_coeff terms from sixthpower mixing rule
Finding 1-2 1-3 1-4 neighbors ...
  special bond factors lj:    0        0        0       
  special bond factors coul:  0        0        0       
     3 = max # of 1-2 neighbors
     6 = max # of 1-3 neighbors
    12 = max # of 1-4 neighbors
    14 = max # of special neighbors
  special bonds CPU = 0.001 seconds
==================================Current bonds formed = 388 Minimum bonds desired = 558=======================================
==================================NVT PA POLYMERIZATION RUN: 300 C===============================
PPPM initialization ...
  using 12-bit tables for long-range coulomb (src/kspace.cpp:342)
  G vector (1/distance) = 0.25136938
  grid = 24 24 24
  stencil order = 5
  estimated absolute RMS force accuracy = 0.036566441
  estimated relative force accuracy = 0.00011011875
  using double precision KISS FFT
  3d grid and FFT values/proc = 4913 1728
Generated 153 of 153 mixed pair_coeff terms from sixthpower mixing rule
WARNING: Inconsistent image flags (src/domain.cpp:1051)
Per MPI rank memory allocation (min/avg/max) = 21.67 | 22.45 | 23.38 Mbytes
   Step          Temp          Press         Density       f_PArxn[1]  
      7842   300           -1042.1295      0.55000892     388          
      7900   311.4718      -466.38787      0.54972804     389          
      8000   323.79059     -190.67603      0.54972804     389          
      8100   321.37066     -5007.723       0.54804275     395          
      8200   338.21866      202.28645      0.54804275     395          
      8300   318.8467      -2571.8268      0.54748098     397          
      8400   321.66016     -1364.9798      0.54691922     399          
      8500   315.34313     -1094.1752      0.54663834     400          
      8600   312.06995     -1498.8872      0.54607658     402          
      8700   312.35554     -1114.8676      0.54579569     403          
      8800   301.89518     -1430.9881      0.54495305     406          
      8842   307.54932     -329.94087      0.54495305     406          
Loop time of 4.32848 on 8 procs for 1000 steps with 7588 atoms

Performance: 19.961 ns/day, 1.202 hours/ns, 231.028 timesteps/s, 1.753 Matom-step/s
98.4% CPU use with 8 MPI tasks x no OpenMP threads

MPI task timing breakdown:
Section |  min time  |  avg time  |  max time  |%varavg| %total
---------------------------------------------------------------
Pair    | 1.0376     | 1.588      | 2.2396     |  26.3 | 36.69
Bond    | 0.14528    | 0.19435    | 0.24781    |   6.2 |  4.49
Kspace  | 0.6817     | 1.3252     | 1.87       |  28.4 | 30.62
Neigh   | 0.56224    | 0.56256    | 0.56303    |   0.0 | 13.00
Comm    | 0.048323   | 0.048655   | 0.049155   |   0.1 |  1.12
Output  | 0.00016234 | 0.00018942 | 0.00035179 |   0.0 |  0.00
Modify  | 0.5431     | 0.60443    | 0.65914    |   4.0 | 13.96
Other   |            | 0.00514    |            |       |  0.12

Nlocal:          948.5 ave        1231 max         717 min
Histogram: 1 0 2 1 1 1 1 0 0 1
Nghost:           4047 ave        4285 max        3860 min
Histogram: 2 2 0 1 0 0 0 0 2 1
Neighs:         142224 ave      201660 max       96284 min
Histogram: 1 1 0 0 3 2 0 0 0 1

Total # of neighbors = 1137791
Ave neighs/atom = 149.9461
Ave special neighs/atom = 9.8887717
Neighbor list builds = 88
Dangerous builds = 0
PPPM initialization ...
  using 12-bit tables for long-range coulomb (src/kspace.cpp:342)
  G vector (1/distance) = 0.25136941
  grid = 24 24 24
  stencil order = 5
  estimated absolute RMS force accuracy = 0.036646535
  estimated relative force accuracy = 0.00011035995
  using double precision KISS FFT
  3d grid and FFT values/proc = 4913 1728
Generated 153 of 153 mixed pair_coeff terms from sixthpower mixing rule
WARNING: Inconsistent image flags (src/domain.cpp:1051)
Per MPI rank memory allocation (min/avg/max) = 21.67 | 22.45 | 23.38 Mbytes
   Step          Temp          Press         Density       f_PArxn[1]  
      8842   309.00863     -329.94087      0.54495305     406          
      8900   308.45163      380.02126      0.5567141      407          
      9000   311.22484     -1312.6836      0.56205155     408          
      9100   306.16898     -2512.0737      0.57544842     410          
      9200   317.654        866.50473      0.60331752     410          
      9300   309.26864     -1646.0318      0.61419392     412          
      9400   320.04345     -161.90522      0.64025053     414          
      9500   313.94163     -1085.8118      0.66156306     416          
      9600   319.54175     -74.64703       0.6944698      419          
      9700   314.16731     -1296.0521      0.70073993     421          
      9800   307.50466     -842.03002      0.71432942     423          
      9842   308.08505     -67.147397      0.72614485     423          
Loop time of 5.41555 on 8 procs for 1000 steps with 7554 atoms

Performance: 15.954 ns/day, 1.504 hours/ns, 184.653 timesteps/s, 1.395 Matom-step/s
99.5% CPU use with 8 MPI tasks x no OpenMP threads

MPI task timing breakdown:
Section |  min time  |  avg time  |  max time  |%varavg| %total
---------------------------------------------------------------
Pair    | 1.6431     | 2.3368     | 3.1348     |  26.0 | 43.15
Bond    | 0.26351    | 0.33217    | 0.42304    |   7.5 |  6.13
Kspace  | 0.68849    | 1.5763     | 2.3374     |  35.0 | 29.11
Neigh   | 0.60947    | 0.60992    | 0.61041    |   0.0 | 11.26
Comm    | 0.051143   | 0.052796   | 0.054504   |   0.6 |  0.97
Output  | 0.00015229 | 0.0001741  | 0.00031659 |   0.0 |  0.00
Modify  | 0.50263    | 0.50291    | 0.50331    |   0.0 |  9.29
Other   |            | 0.004563   |            |       |  0.08

Nlocal:         944.25 ave        1147 max         766 min
Histogram: 1 0 1 2 0 2 1 0 0 1
Nghost:        4719.25 ave        4892 max        4571 min
Histogram: 3 0 0 0 1 1 1 0 1 1
Neighs:         182090 ave      232267 max      140479 min
Histogram: 1 1 0 1 1 1 2 0 0 1

Total # of neighbors = 1456723
Ave neighs/atom = 192.84128
Ave special neighs/atom = 9.9467832
Neighbor list builds = 93
Dangerous builds = 0

WARNING: 'reset_atom_ids' has been renamed to 'reset_atoms id'. Please update your input.

Resetting atom IDs ...
PPPM initialization ...
  using 12-bit tables for long-range coulomb (src/kspace.cpp:342)
  G vector (1/distance) = 0.26020596
  grid = 24 24 24
  stencil order = 5
  estimated absolute RMS force accuracy = 0.029522697
  estimated relative force accuracy = 8.8906725e-05
  using double precision KISS FFT
  3d grid and FFT values/proc = 4913 1728
Generated 153 of 153 mixed pair_coeff terms from sixthpower mixing rule
Finding 1-2 1-3 1-4 neighbors ...
  special bond factors lj:    0        0        0       
  special bond factors coul:  0        0        0       
     3 = max # of 1-2 neighbors
     6 = max # of 1-3 neighbors
    12 = max # of 1-4 neighbors
    14 = max # of special neighbors
  special bonds CPU = 0.001 seconds
==================================Current bonds formed = 423 Minimum bonds desired = 558=======================================
==================================NVT PA POLYMERIZATION RUN: 300 C===============================
PPPM initialization ...
  using 12-bit tables for long-range coulomb (src/kspace.cpp:342)
  G vector (1/distance) = 0.26020596
  grid = 24 24 24
  stencil order = 5
  estimated absolute RMS force accuracy = 0.029522697
  estimated relative force accuracy = 8.8906725e-05
  using double precision KISS FFT
  3d grid and FFT values/proc = 4913 1728
Generated 153 of 153 mixed pair_coeff terms from sixthpower mixing rule
WARNING: Inconsistent image flags (src/domain.cpp:1051)
Per MPI rank memory allocation (min/avg/max) = 22.43 | 22.77 | 23.38 Mbytes
   Step          Temp          Press         Density       f_PArxn[1]  
      9842   300           -128.12467      0.72614485     423          
      9900   294.75157     -79.259492      0.72614485     423          
     10000   299.10498     -3055.7189      0.72538969     425          
     10100   307.72788     -963.12684      0.7250121      426          
     10200   314.92547     -116.88033      0.7250121      426          
     10300   308.15951      253.76492      0.7250121      426          
     10400   306.45055     -277.38587      0.7250121      426          
     10500   303.35964     -521.97126      0.72463452     427          
     10600   302.07316     -2451.9109      0.72425694     428          
     10700   317.44587     -1019.7108      0.72236904     433          
     10800   318.11042     -450.53878      0.72199146     434          
     10842   326.77384     -268.23241      0.72199146     434          
Loop time of 4.3374 on 8 procs for 1000 steps with 7532 atoms

Performance: 19.920 ns/day, 1.205 hours/ns, 230.553 timesteps/s, 1.737 Matom-step/s
99.6% CPU use with 8 MPI tasks x no OpenMP threads

MPI task timing breakdown:
Section |  min time  |  avg time  |  max time  |%varavg| %total
---------------------------------------------------------------
Pair    | 1.4963     | 1.9651     | 2.46       |  20.6 | 45.31
Bond    | 0.15549    | 0.19339    | 0.23205    |   5.0 |  4.46
Kspace  | 0.5883     | 1.0828     | 1.549      |  27.7 | 24.96
Neigh   | 0.49006    | 0.49019    | 0.49037    |   0.0 | 11.30
Comm    | 0.048071   | 0.048877   | 0.049826   |   0.3 |  1.13
Output  | 0.000153   | 0.00017751 | 0.00033471 |   0.0 |  0.00
Modify  | 0.5144     | 0.55301    | 0.59278    |   3.1 | 12.75
Other   |            | 0.003892   |            |       |  0.09

Nlocal:          941.5 ave        1115 max         785 min
Histogram: 1 1 0 1 2 0 1 1 0 1
Nghost:        4707.25 ave        4839 max        4553 min
Histogram: 2 1 0 0 0 0 2 0 1 2
Neighs:         180452 ave      224959 max      141814 min
Histogram: 2 0 0 0 2 2 0 1 0 1

Total # of neighbors = 1443619
Ave neighs/atom = 191.66476
Ave special neighs/atom = 9.984599
Neighbor list builds = 69
Dangerous builds = 0
PPPM initialization ...
  using 12-bit tables for long-range coulomb (src/kspace.cpp:342)
  G vector (1/distance) = 0.26020596
  grid = 24 24 24
  stencil order = 5
  estimated absolute RMS force accuracy = 0.029559207
  estimated relative force accuracy = 8.9016674e-05
  using double precision KISS FFT
  3d grid and FFT values/proc = 4913 1728
Generated 153 of 153 mixed pair_coeff terms from sixthpower mixing rule
WARNING: Inconsistent image flags (src/domain.cpp:1051)
Per MPI rank memory allocation (min/avg/max) = 22.43 | 22.77 | 23.38 Mbytes
   Step          Temp          Press         Density       f_PArxn[1]  
     10842   327.72843     -268.23241      0.72199146     434          
     10900   324.43097      662.65375      0.73661786     435          
     11000   313.35025     -2819.8392      0.75002313     436          
     11100   318.98491      270.35676      0.7791495      438          
     11200   321.55588     -890.459        0.79598803     440          
     11300   310.12608     -5363.6434      0.81022031     443          
     11400   311.71641     -874.08937      0.83098052     444          
     11500   306.43047     -1460.5519      0.84638236     445          
     11600   301.8453      -1037.5759      0.85773282     446          
     11700   300.65457     -4229.1333      0.88346073     450          
     11800   323.38972     -2713.5377      0.93754581     453          
     11842   329.7667      -1156.3856      0.94548195     453          
Loop time of 5.76842 on 8 procs for 1000 steps with 7494 atoms

Performance: 14.978 ns/day, 1.602 hours/ns, 173.358 timesteps/s, 1.299 Matom-step/s
99.7% CPU use with 8 MPI tasks x no OpenMP threads

MPI task timing breakdown:
Section |  min time  |  avg time  |  max time  |%varavg| %total
---------------------------------------------------------------
Pair    | 2.2601     | 2.8778     | 3.4801     |  21.7 | 49.89
Bond    | 0.2808     | 0.33505    | 0.39079    |   5.9 |  5.81
Kspace  | 0.59871    | 1.2567     | 1.9289     |  35.8 | 21.79
Neigh   | 0.63879    | 0.63904    | 0.63934    |   0.0 | 11.08
Comm    | 0.055368   | 0.056088   | 0.057322   |   0.3 |  0.97
Output  | 0.00016679 | 0.00019297 | 0.00036458 |   0.0 |  0.00
Modify  | 0.59837    | 0.59877    | 0.59908    |   0.0 | 10.38
Other   |            | 0.004823   |            |       |  0.08

Nlocal:         936.75 ave        1064 max         814 min
Histogram: 2 0 0 1 1 1 1 0 1 1
Nghost:         5414.5 ave        5483 max        5302 min
Histogram: 1 1 0 1 0 0 1 0 0 4
Neighs:         235212 ave      282213 max      188880 min
Histogram: 2 0 0 1 0 1 2 1 0 1

Total # of neighbors = 1881694
Ave neighs/atom = 251.09341
Ave special neighs/atom = 10.05044
Neighbor list builds = 85
Dangerous builds = 0

WARNING: 'reset_atom_ids' has been renamed to 'reset_atoms id'. Please update your input.

Resetting atom IDs ...
PPPM initialization ...
  using 12-bit tables for long-range coulomb (src/kspace.cpp:342)
  G vector (1/distance) = 0.26838034
  grid = 24 24 24
  stencil order = 5
  estimated absolute RMS force accuracy = 0.024010054
  estimated relative force accuracy = 7.2305564e-05
  using double precision KISS FFT
  3d grid and FFT values/proc = 4913 1728
Generated 153 of 153 mixed pair_coeff terms from sixthpower mixing rule
Finding 1-2 1-3 1-4 neighbors ...
  special bond factors lj:    0        0        0       
  special bond factors coul:  0        0        0       
     3 = max # of 1-2 neighbors
     6 = max # of 1-3 neighbors
    12 = max # of 1-4 neighbors
    14 = max # of special neighbors
  special bonds CPU = 0.001 seconds
==================================Current bonds formed = 453 Minimum bonds desired = 558=======================================
==================================NVT PA POLYMERIZATION RUN: 300 C===============================
PPPM initialization ...
  using 12-bit tables for long-range coulomb (src/kspace.cpp:342)
  G vector (1/distance) = 0.26838034
  grid = 24 24 24
  stencil order = 5
  estimated absolute RMS force accuracy = 0.024010054
  estimated relative force accuracy = 7.2305564e-05
  using double precision KISS FFT
  3d grid and FFT values/proc = 4913 1728
Generated 153 of 153 mixed pair_coeff terms from sixthpower mixing rule
WARNING: Inconsistent image flags (src/domain.cpp:1051)
Per MPI rank memory allocation (min/avg/max) = 22.59 | 23.19 | 23.56 Mbytes
   Step          Temp          Press         Density       f_PArxn[1]  
     11842   300           -1419.8083      0.94548195     453          
     11900   309.59253     -218.01485      0.94498253     454          
     12000   310.27276     -3693.8028      0.94348426     457          
     12100   317.91868      79.221718      0.94348426     457          
     12200   306.42496     -8602.5542      0.94098715     462          
     12300   329.42743     -1999.9621      0.94048773     463          
     12400   321.92012     -745.53325      0.93998831     464          
     12500   309.06975     -1540.332       0.93948889     465          
     12600   308.03807     -1533.7795      0.93849004     467          
     12700   305.06724     -282.99789      0.9374912      469          
     12800   305.67747     -804.28321      0.93649235     471          
     12842   313.93698      827.27142      0.93649235     471          
Loop time of 5.16532 on 8 procs for 1000 steps with 7458 atoms

Performance: 16.727 ns/day, 1.435 hours/ns, 193.599 timesteps/s, 1.444 Matom-step/s
99.7% CPU use with 8 MPI tasks x no OpenMP threads

MPI task timing breakdown:
Section |  min time  |  avg time  |  max time  |%varavg| %total
---------------------------------------------------------------
Pair    | 2.1309     | 2.5873     | 3.0513     |  19.8 | 50.09
Bond    | 0.17595    | 0.19761    | 0.22095    |   3.7 |  3.83
Kspace  | 0.57897    | 1.0395     | 1.4905     |  31.1 | 20.12
Neigh   | 0.69268    | 0.69283    | 0.69309    |   0.0 | 13.41
Comm    | 0.059084   | 0.059901   | 0.060979   |   0.3 |  1.16
Output  | 0.0002105  | 0.00026121 | 0.00041258 |   0.0 |  0.01
Modify  | 0.55702    | 0.58361    | 0.60975    |   2.4 | 11.30
Other   |            | 0.00438    |            |       |  0.08

Nlocal:         932.25 ave        1060 max         825 min
Histogram: 2 1 0 0 0 3 0 0 1 1
Nghost:        5346.38 ave        5425 max        5249 min
Histogram: 2 0 0 0 2 0 1 0 2 1
Neighs:         232693 ave      279768 max      193793 min
Histogram: 2 1 0 0 0 3 0 0 1 1

Total # of neighbors = 1861543
Ave neighs/atom = 249.60351
Ave special neighs/atom = 10.113435
Neighbor list builds = 78
Dangerous builds = 0
PPPM initialization ...
  using 12-bit tables for long-range coulomb (src/kspace.cpp:342)
  G vector (1/distance) = 0.26838034
  grid = 24 24 24
  stencil order = 5
  estimated absolute RMS force accuracy = 0.024059832
  estimated relative force accuracy = 7.2455468e-05
  using double precision KISS FFT
  3d grid and FFT values/proc = 4913 1728
Generated 153 of 153 mixed pair_coeff terms from sixthpower mixing rule
WARNING: Inconsistent image flags (src/domain.cpp:1051)
Per MPI rank memory allocation (min/avg/max) = 22.59 | 23.19 | 23.56 Mbytes
   Step          Temp          Press         Density       f_PArxn[1]  
     12842   315.45256      827.27142      0.93649235     471          
     12900   302.03702     -1282.879       0.93804404     472          
     13000   312.22255     -162.07242      0.94907538     472          
     13100   305.12608      1162.0256      0.94468677     472          
     13200   299.99675     -163.28813      0.9442156      472          
     13300   297.01145     -3108.0666      0.95159159     473          
     13400   304.23372      919.65724      0.98378728     474          
     13500   301.93485     -3858.5827      0.97435239     476          
     13600   310.73744      92.959725      0.98675921     476          
     13700   301.28862      789.22071      0.98638071     476          
     13800   298.73778     -2978.9645      0.9828318      477          
     13842   302.5103      -125.06458      0.99267904     477          
Loop time of 6.32509 on 8 procs for 1000 steps with 7446 atoms

Performance: 13.660 ns/day, 1.757 hours/ns, 158.100 timesteps/s, 1.177 Matom-step/s
99.7% CPU use with 8 MPI tasks x no OpenMP threads

MPI task timing breakdown:
Section |  min time  |  avg time  |  max time  |%varavg| %total
---------------------------------------------------------------
Pair    | 2.8568     | 3.3951     | 3.9573     |  22.2 | 53.68
Bond    | 0.28854    | 0.33831    | 0.37953    |   5.4 |  5.35
Kspace  | 0.62202    | 1.2252     | 1.7987     |  39.8 | 19.37
Neigh   | 0.63804    | 0.63817    | 0.63834    |   0.0 | 10.09
Comm    | 0.058143   | 0.058658   | 0.059141   |   0.2 |  0.93
Output  | 0.00014837 | 0.00017396 | 0.00034291 |   0.0 |  0.00
Modify  | 0.66385    | 0.66409    | 0.66429    |   0.0 | 10.50
Other   |            | 0.005341   |            |       |  0.08

Nlocal:         930.75 ave        1016 max         803 min
Histogram: 1 0 2 0 0 1 0 1 0 3
Nghost:        5544.88 ave        5641 max        5474 min
Histogram: 3 0 0 2 0 0 1 0 1 1
Neighs:         245706 ave      277628 max      202107 min
Histogram: 1 1 1 0 1 0 0 1 0 3

Total # of neighbors = 1965650
Ave neighs/atom = 263.98738
Ave special neighs/atom = 10.134569
Neighbor list builds = 72
Dangerous builds = 0

WARNING: 'reset_atom_ids' has been renamed to 'reset_atoms id'. Please update your input.

Resetting atom IDs ...
PPPM initialization ...
  using 12-bit tables for long-range coulomb (src/kspace.cpp:342)
  G vector (1/distance) = 0.25406983
  grid = 20 20 20
  stencil order = 5
  estimated absolute RMS force accuracy = 0.04548778
  estimated relative force accuracy = 0.0001369851
  using double precision KISS FFT
  3d grid and FFT values/proc = 3375 1200
Generated 153 of 153 mixed pair_coeff terms from sixthpower mixing rule
Finding 1-2 1-3 1-4 neighbors ...
  special bond factors lj:    0        0        0       
  special bond factors coul:  0        0        0       
     3 = max # of 1-2 neighbors
     6 = max # of 1-3 neighbors
    12 = max # of 1-4 neighbors
    14 = max # of special neighbors
  special bonds CPU = 0.001 seconds
==================================Current bonds formed = 477 Minimum bonds desired = 558=======================================
==================================NVT PA POLYMERIZATION RUN: 300 C===============================
PPPM initialization ...
  using 12-bit tables for long-range coulomb (src/kspace.cpp:342)
  G vector (1/distance) = 0.25406983
  grid = 20 20 20
  stencil order = 5
  estimated absolute RMS force accuracy = 0.04548778
  estimated relative force accuracy = 0.0001369851
  using double precision KISS FFT
  3d grid and FFT values/proc = 3375 1200
Generated 153 of 153 mixed pair_coeff terms from sixthpower mixing rule
WARNING: Inconsistent image flags (src/domain.cpp:1051)
Per MPI rank memory allocation (min/avg/max) = 23.19 | 23.3 | 23.47 Mbytes
   Step          Temp          Press         Density       f_PArxn[1]  
     13842   300           -149.06456      0.99267904     477          
     13900   292.2737      -1127.1423      0.99267904     477          
     14000   301.0365      -339.83247      0.99267904     477          
     14100   303.55109      87.935384      0.99267904     477          
     14200   305.987       -644.97157      0.99267904     477          
     14300   302.19835     -1480.422       0.99267904     477          
     14400   299.03961     -888.3964       0.99267904     477          
     14500   302.086        476.62871      0.99267904     477          
     14600   300.46037      107.60277      0.99267904     477          
     14700   299.38245     -3156.6723      0.99108578     480          
     14800   307.64672     -770.89085      0.99108578     480          
     14842   307.98421     -221.49486      0.99108578     480          
Loop time of 4.93282 on 8 procs for 1000 steps with 7440 atoms

Performance: 17.515 ns/day, 1.370 hours/ns, 202.724 timesteps/s, 1.508 Matom-step/s
99.6% CPU use with 8 MPI tasks x no OpenMP threads

MPI task timing breakdown:
Section |  min time  |  avg time  |  max time  |%varavg| %total
---------------------------------------------------------------
Pair    | 2.2289     | 2.7164     | 3.0655     |  18.2 | 55.07
Bond    | 0.17303    | 0.19873    | 0.21302    |   3.1 |  4.03
Kspace  | 0.52167    | 0.86529    | 1.3501     |  31.9 | 17.54
Neigh   | 0.44024    | 0.44037    | 0.44047    |   0.0 |  8.93
Comm    | 0.054665   | 0.056641   | 0.058575   |   0.6 |  1.15
Output  | 0.00016996 | 0.00019705 | 0.00036563 |   0.0 |  0.00
Modify  | 0.632      | 0.65081    | 0.68109    |   2.2 | 13.19
Other   |            | 0.004426   |            |       |  0.09

Nlocal:            930 ave        1021 max         821 min
Histogram: 2 0 1 0 0 0 2 1 0 2
Nghost:        5534.25 ave        5625 max        5431 min
Histogram: 1 1 1 0 1 1 0 0 1 2
Neighs:         246678 ave      283189 max      204966 min
Histogram: 1 2 0 0 0 0 2 1 0 2

Total # of neighbors = 1973421
Ave neighs/atom = 265.24476
Ave special neighs/atom = 10.145161
Neighbor list builds = 50
Dangerous builds = 0
PPPM initialization ...
  using 12-bit tables for long-range coulomb (src/kspace.cpp:342)
  G vector (1/distance) = 0.25406993
  grid = 20 20 20
  stencil order = 5
  estimated absolute RMS force accuracy = 0.045504128
  estimated relative force accuracy = 0.00013703433
  using double precision KISS FFT
  3d grid and FFT values/proc = 3375 1200
Generated 153 of 153 mixed pair_coeff terms from sixthpower mixing rule
WARNING: Inconsistent image flags (src/domain.cpp:1051)
Per MPI rank memory allocation (min/avg/max) = 23.19 | 23.3 | 23.47 Mbytes
   Step          Temp          Press         Density       f_PArxn[1]  
     14842   308.23262     -221.49484      0.99108578     480          
     14900   308.94693     -2628.1531      1.0029102      482          
     15000   311.3357      -88.046341      1.0179459      482          
     15100   309.90807     -2179.9771      1.0149142      483          
     15200   306.90184     -261.42862      1.024561       483          
     15300   305.74885      121.45049      1.0198304      483          
     15400   302.03753      469.37852      1.0163865      483          
     15500   297.31208     -2433.2785      1.0159713      484          
     15600   298.97581     -808.47565      1.0327338      485          
     15700   298.52054      594.53903      1.0341196      485          
     15800   296.57502     -322.75273      1.0295248      485          
     15842   295.55274     -499.10393      1.0292634      485          
Loop time of 6.37871 on 8 procs for 1000 steps with 7430 atoms

Performance: 13.545 ns/day, 1.772 hours/ns, 156.771 timesteps/s, 1.165 Matom-step/s
99.7% CPU use with 8 MPI tasks x no OpenMP threads

MPI task timing breakdown:
Section |  min time  |  avg time  |  max time  |%varavg| %total
---------------------------------------------------------------
Pair    | 3.1497     | 3.6169     | 4.0932     |  17.6 | 56.70
Bond    | 0.30447    | 0.34166    | 0.37398    |   4.1 |  5.36
Kspace  | 0.53304    | 1.0416     | 1.538      |  35.2 | 16.33
Neigh   | 0.61986    | 0.62001    | 0.62019    |   0.0 |  9.72
Comm    | 0.058316   | 0.059468   | 0.061008   |   0.4 |  0.93
Output  | 0.0002055  | 0.00023203 | 0.00039621 |   0.0 |  0.00
Modify  | 0.69354    | 0.69388    | 0.69419    |   0.0 | 10.88
Other   |            | 0.00495    |            |       |  0.08

Nlocal:         928.75 ave        1012 max         833 min
Histogram: 1 1 0 1 0 1 2 0 0 2
Nghost:        5656.88 ave        5744 max        5576 min
Histogram: 2 0 0 1 2 0 0 1 0 2
Neighs:         256567 ave      288634 max      222382 min
Histogram: 1 1 1 0 0 0 3 0 1 1

Total # of neighbors = 2052535
Ave neighs/atom = 276.24966
Ave special neighs/atom = 10.162853
Neighbor list builds = 69
Dangerous builds = 0

WARNING: 'reset_atom_ids' has been renamed to 'reset_atoms id'. Please update your input.

Resetting atom IDs ...
PPPM initialization ...
  using 12-bit tables for long-range coulomb (src/kspace.cpp:342)
  G vector (1/distance) = 0.25528632
  grid = 20 20 20
  stencil order = 5
  estimated absolute RMS force accuracy = 0.044193359
  estimated relative force accuracy = 0.00013308699
  using double precision KISS FFT
  3d grid and FFT values/proc = 3375 1200
Generated 153 of 153 mixed pair_coeff terms from sixthpower mixing rule
Finding 1-2 1-3 1-4 neighbors ...
  special bond factors lj:    0        0        0       
  special bond factors coul:  0        0        0       
     3 = max # of 1-2 neighbors
     6 = max # of 1-3 neighbors
    12 = max # of 1-4 neighbors
    14 = max # of special neighbors
  special bonds CPU = 0.001 seconds
==================================Current bonds formed = 485 Minimum bonds desired = 558=======================================
==================================NVT PA POLYMERIZATION RUN: 300 C===============================
PPPM initialization ...
  using 12-bit tables for long-range coulomb (src/kspace.cpp:342)
  G vector (1/distance) = 0.25528632
  grid = 20 20 20
  stencil order = 5
  estimated absolute RMS force accuracy = 0.044193359
  estimated relative force accuracy = 0.00013308699
  using double precision KISS FFT
  3d grid and FFT values/proc = 3375 1200
Generated 153 of 153 mixed pair_coeff terms from sixthpower mixing rule
WARNING: Inconsistent image flags (src/domain.cpp:1051)
Per MPI rank memory allocation (min/avg/max) = 23.2 | 23.4 | 24.24 Mbytes
   Step          Temp          Press         Density       f_PArxn[1]  
     15842   300           -461.44165      1.0292634      485          
     15900   293.66501     -1103.6245      1.0292634      485          
     16000   302.85039      49.761984      1.0292634      485          
     16100   301.89445     -219.96622      1.0292634      485          
     16200   301.04891      124.47981      1.0292634      485          
     16300   299.38901     -621.80937      1.0292634      485          
     16400   298.77583     -82.157872      1.0292634      485          
     16500   299.23219     -659.44114      1.0292634      485          
     16600   298.73194     -877.3602       1.0292634      485          
     16700   295.01446     -415.68552      1.0292634      485          
     16800   300.1973      -1045.507       1.0287104      486          
     16842   304.03622     -831.25018      1.0287104      486          
Loop time of 5.03534 on 8 procs for 1000 steps with 7428 atoms

Performance: 17.159 ns/day, 1.399 hours/ns, 198.596 timesteps/s, 1.475 Matom-step/s
99.6% CPU use with 8 MPI tasks x no OpenMP threads

MPI task timing breakdown:
Section |  min time  |  avg time  |  max time  |%varavg| %total
---------------------------------------------------------------
Pair    | 2.5098     | 2.8556     | 3.1717     |  14.4 | 56.71
Bond    | 0.18287    | 0.20035    | 0.21643    |   2.7 |  3.98
Kspace  | 0.53837    | 0.85034    | 1.1932     |  26.1 | 16.89
Neigh   | 0.42452    | 0.42472    | 0.42492    |   0.0 |  8.43
Comm    | 0.057529   | 0.058583   | 0.059787   |   0.3 |  1.16
Output  | 0.00018233 | 0.00019999 | 0.0003095  |   0.0 |  0.00
Modify  | 0.62201    | 0.64103    | 0.66189    |   1.8 | 12.73
Other   |            | 0.004492   |            |       |  0.09

Nlocal:          928.5 ave        1002 max         827 min
Histogram: 1 1 0 1 0 0 1 1 1 2
Nghost:        5647.75 ave        5721 max        5548 min
Histogram: 1 0 1 1 0 1 1 0 0 3
Neighs:         256268 ave      283296 max      216932 min
Histogram: 1 1 0 1 0 0 0 2 1 2

Total # of neighbors = 2050146
Ave neighs/atom = 276.00242
Ave special neighs/atom = 10.166397
Neighbor list builds = 48
Dangerous builds = 0
PPPM initialization ...
  using 12-bit tables for long-range coulomb (src/kspace.cpp:342)
  G vector (1/distance) = 0.25528632
  grid = 20 20 20
  stencil order = 5
  estimated absolute RMS force accuracy = 0.04419804
  estimated relative force accuracy = 0.00013310109
  using double precision KISS FFT
  3d grid and FFT values/proc = 3375 1200
Generated 153 of 153 mixed pair_coeff terms from sixthpower mixing rule
WARNING: Inconsistent image flags (src/domain.cpp:1051)
Per MPI rank memory allocation (min/avg/max) = 23.2 | 23.4 | 24.24 Mbytes
   Step          Temp          Press         Density       f_PArxn[1]  
     16842   304.1181      -831.25018      1.0287104      486          
     16900   304.92203     -453.23297      1.0333851      486          
     17000   299.76422     -259.56479      1.0433806      486          
     17100   299.35592      133.67898      1.0488844      486          
     17200   300.87838     -671.01799      1.057196       487          
     17300   305.94288      658.44742      1.0672424      487          
     17400   298.29855     -3503.9736      1.0588196      488          
     17500   300.06454      958.18687      1.0627627      488          
     17600   300.80085      659.21803      1.067278       488          
     17700   294.63054     -1233.8096      1.0616289      488          
     17800   301.15471      631.54016      1.0681867      488          
     17842   301.20196      631.97115      1.0692827      488          
Loop time of 6.33301 on 8 procs for 1000 steps with 7424 atoms

Performance: 13.643 ns/day, 1.759 hours/ns, 157.903 timesteps/s, 1.172 Matom-step/s
99.7% CPU use with 8 MPI tasks x no OpenMP threads

MPI task timing breakdown:
Section |  min time  |  avg time  |  max time  |%varavg| %total
---------------------------------------------------------------
Pair    | 3.1908     | 3.7672     | 4.1358     |  18.4 | 59.49
Bond    | 0.30802    | 0.34442    | 0.36872    |   4.0 |  5.44
Kspace  | 0.61192    | 1.0045     | 1.6158     |  37.9 | 15.86
Neigh   | 0.46696    | 0.46705    | 0.46714    |   0.0 |  7.37
Comm    | 0.059059   | 0.05988    | 0.061636   |   0.4 |  0.95
Output  | 0.00015396 | 0.00017121 | 0.00028587 |   0.0 |  0.00
Modify  | 0.68436    | 0.68458    | 0.68474    |   0.0 | 10.81
Other   |            | 0.005146   |            |       |  0.08

Nlocal:            928 ave         987 max         838 min
Histogram: 2 0 1 0 0 0 0 1 1 3
Nghost:        5760.12 ave        5851 max        5701 min
Histogram: 1 3 0 1 0 1 0 0 0 2
Neighs:         266145 ave      292991 max      228521 min
Histogram: 2 0 1 0 0 0 1 0 2 2

Total # of neighbors = 2129161
Ave neighs/atom = 286.79432
Ave special neighs/atom = 10.173491
Neighbor list builds = 52
Dangerous builds = 0

WARNING: 'reset_atom_ids' has been renamed to 'reset_atoms id'. Please update your input.

Resetting atom IDs ...
PPPM initialization ...
  using 12-bit tables for long-range coulomb (src/kspace.cpp:342)
  G vector (1/distance) = 0.25647406
  grid = 20 20 20
[...]
Modify  | 1.2046     | 1.2175     | 1.2323     |   0.7 | 19.42
Other   |            | 0.005797   |            |       |  0.09

Nlocal:         919.25 ave         956 max         884 min
Histogram: 1 0 1 0 3 1 0 1 0 1
Nghost:           6261 ave        6305 max        6218 min
Histogram: 1 0 0 2 2 0 1 1 0 1
Neighs:         309876 ave      321934 max      294102 min
Histogram: 1 0 1 0 0 2 1 1 1 1

Total # of neighbors = 2479008
Ave neighs/atom = 337.09655
Ave special neighs/atom = 10.298885
Neighbor list builds = 38
Dangerous builds = 0
PPPM initialization ...
  using 12-bit tables for long-range coulomb (src/kspace.cpp:342)
  G vector (1/distance) = 0.26138832
  grid = 20 20 20
  stencil order = 5
  estimated absolute RMS force accuracy = 0.038111182
  estimated relative force accuracy = 0.00011477069
  using double precision KISS FFT
  3d grid and FFT values/proc = 3375 1200
Generated 153 of 153 mixed pair_coeff terms from sixthpower mixing rule
Per MPI rank memory allocation (min/avg/max) = 24.07 | 24.14 | 24.25 Mbytes
   Step          Temp          Press         Density       f_PArxn[1]  
    588842   301.0362       685.82522      1.2381302      523          
    588900   298.9848      -988.79194      1.2339116      523          
    589000   300.19946      540.27755      1.2349088      523          
    589100   293.04098     -1298.6866      1.2365206      523          
    589200   297.65604     -245.04347      1.2404548      523          
    589300   303.4886       443.4629       1.2320004      523          
    589400   302.54924      104.83889      1.2278551      523          
    589500   299.67013     -142.43176      1.2289283      523          
    589600   300.95054     -594.03896      1.2281701      523          
    589700   297.57881     -1002.257       1.2280081      523          
    589800   299.59277      1107.3721      1.2300765      523          
    589842   296.11882     -432.07635      1.22646        523          
Loop time of 7.43175 on 8 procs for 1000 steps with 7354 atoms

Performance: 11.626 ns/day, 2.064 hours/ns, 134.558 timesteps/s, 989.538 katom-step/s
96.4% CPU use with 8 MPI tasks x no OpenMP threads

MPI task timing breakdown:
Section |  min time  |  avg time  |  max time  |%varavg| %total
---------------------------------------------------------------
Pair    | 4.2938     | 4.4386     | 4.5493     |   3.3 | 59.72
Bond    | 0.33187    | 0.34899    | 0.36595    |   1.6 |  4.70
Kspace  | 0.90445    | 1.0201     | 1.1697     |   7.0 | 13.73
Neigh   | 0.38192    | 0.38204    | 0.38214    |   0.0 |  5.14
Comm    | 0.054867   | 0.056565   | 0.058324   |   0.4 |  0.76
Output  | 0.00025788 | 0.00031072 | 0.00039429 |   0.0 |  0.00
Modify  | 1.1756     | 1.177      | 1.1789     |   0.1 | 15.84
Other   |            | 0.008247   |            |       |  0.11

Nlocal:         919.25 ave         953 max         895 min
Histogram: 1 0 2 1 1 2 0 0 0 1
Nghost:        6228.75 ave        6261 max        6202 min
Histogram: 1 0 1 0 3 2 0 0 0 1
Neighs:         306574 ave      319531 max      294592 min
Histogram: 1 0 1 1 1 1 2 0 0 1

Total # of neighbors = 2452596
Ave neighs/atom = 333.50503
Ave special neighs/atom = 10.298885
Neighbor list builds = 40
Dangerous builds = 0

WARNING: 'reset_atom_ids' has been renamed to 'reset_atoms id'. Please update your input.

Resetting atom IDs ...
PPPM initialization ...
  using 12-bit tables for long-range coulomb (src/kspace.cpp:342)
  G vector (1/distance) = 0.26110899
  grid = 20 20 20
  stencil order = 5
  estimated absolute RMS force accuracy = 0.038382296
  estimated relative force accuracy = 0.00011558714
  using double precision KISS FFT
  3d grid and FFT values/proc = 3375 1200
Generated 153 of 153 mixed pair_coeff terms from sixthpower mixing rule
Finding 1-2 1-3 1-4 neighbors ...
  special bond factors lj:    0        0        0       
  special bond factors coul:  0        0        0       
     3 = max # of 1-2 neighbors
     6 = max # of 1-3 neighbors
    12 = max # of 1-4 neighbors
    14 = max # of special neighbors
  special bonds CPU = 0.001 seconds
==================================Current bonds formed = 523 Minimum bonds desired = 558=======================================
==================================NVT PA POLYMERIZATION RUN: 300 C===============================
PPPM initialization ...
  using 12-bit tables for long-range coulomb (src/kspace.cpp:342)
  G vector (1/distance) = 0.26110899
  grid = 20 20 20
  stencil order = 5
  estimated absolute RMS force accuracy = 0.038382296
  estimated relative force accuracy = 0.00011558714
  using double precision KISS FFT
  3d grid and FFT values/proc = 3375 1200
Generated 153 of 153 mixed pair_coeff terms from sixthpower mixing rule
Per MPI rank memory allocation (min/avg/max) = 24.07 | 24.14 | 24.25 Mbytes
   Step          Temp          Press         Density       f_PArxn[1]  
    589842   300           -388.92616      1.22646        523          
    589900   300.39098     -789.26048      1.22646        523          
    590000   299.12767     -93.645012      1.22646        523          
    590100   300.82458      85.907055      1.22646        523          
    590200   305.06503      240.14977      1.22646        523          
    590300   297.62915     -1284.7041      1.22646        523          
    590400   296.8112      -1113.5557      1.22646        523          
    590500   304.62684     -886.87864      1.22646        523          
    590600   300.42963     -100.55571      1.22646        523          
    590700   304.44481     -84.045412      1.22646        523          
    590800   306.26038      477.61949      1.22646        523          
    590842   302.80608      655.69355      1.22646        523          
Loop time of 5.68027 on 8 procs for 1000 steps with 7354 atoms

Performance: 15.211 ns/day, 1.578 hours/ns, 176.048 timesteps/s, 1.295 Matom-step/s
98.2% CPU use with 8 MPI tasks x no OpenMP threads

MPI task timing breakdown:
Section |  min time  |  avg time  |  max time  |%varavg| %total
---------------------------------------------------------------
Pair    | 3.2403     | 3.3749     | 3.5101     |   4.3 | 59.41
Bond    | 0.19482    | 0.20105    | 0.20615    |   0.8 |  3.54
Kspace  | 0.67089    | 0.80466    | 0.93893    |   8.8 | 14.17
Neigh   | 0.35504    | 0.35512    | 0.35523    |   0.0 |  6.25
Comm    | 0.052111   | 0.053179   | 0.054654   |   0.4 |  0.94
Output  | 0.00013688 | 0.00015521 | 0.00027613 |   0.0 |  0.00
Modify  | 0.87723    | 0.88581    | 0.89186    |   0.4 | 15.59
Other   |            | 0.005405   |            |       |  0.10

Nlocal:         919.25 ave         965 max         872 min
Histogram: 1 0 0 1 1 3 1 0 0 1
Nghost:        6214.75 ave        6266 max        6177 min
Histogram: 1 1 0 2 2 0 1 0 0 1
Neighs:         306863 ave      322145 max      284069 min
Histogram: 1 0 0 1 0 2 0 3 0 1

Total # of neighbors = 2454902
Ave neighs/atom = 333.8186
Ave special neighs/atom = 10.298885
Neighbor list builds = 39
Dangerous builds = 0
PPPM initialization ...
  using 12-bit tables for long-range coulomb (src/kspace.cpp:342)
  G vector (1/distance) = 0.26110899
  grid = 20 20 20
  stencil order = 5
  estimated absolute RMS force accuracy = 0.038382296
  estimated relative force accuracy = 0.00011558714
  using double precision KISS FFT
  3d grid and FFT values/proc = 3375 1200
Generated 153 of 153 mixed pair_coeff terms from sixthpower mixing rule
Per MPI rank memory allocation (min/avg/max) = 24.07 | 24.14 | 24.25 Mbytes
   Step          Temp          Press         Density       f_PArxn[1]  
    590842   302.80608      655.69355      1.22646        523          
    590900   305.94168     -163.85696      1.2208847      523          
    591000   296.662        112.49739      1.2250487      523          
    591100   300.4063      -1029.5634      1.2284512      523          
    591200   303.2593       345.87785      1.2307363      523          
    591300   298.71861     -1037.7407      1.234135       523          
    591400   294.09997     -50.878436      1.2375584      523          
    591500   298.43024      162.85222      1.2331862      523          
    591600   303.28151     -420.22824      1.2417891      523          
    591700   301.46781      179.57055      1.2371654      523          
    591800   296.48707      564.65576      1.229875       523          
    591842   297.46218     -336.18688      1.22664        523          
Loop time of 7.0959 on 8 procs for 1000 steps with 7354 atoms

Performance: 12.176 ns/day, 1.971 hours/ns, 140.926 timesteps/s, 1.036 Matom-step/s
97.3% CPU use with 8 MPI tasks x no OpenMP threads

MPI task timing breakdown:
Section |  min time  |  avg time  |  max time  |%varavg| %total
---------------------------------------------------------------
Pair    | 4.2717     | 4.3881     | 4.5137     |   3.1 | 61.84
Bond    | 0.3311     | 0.34991    | 0.36298    |   1.7 |  4.93
Kspace  | 0.77176    | 0.91092    | 1.0298     |   7.6 | 12.84
Neigh   | 0.38012    | 0.38042    | 0.38097    |   0.1 |  5.36
Comm    | 0.054109   | 0.054622   | 0.055292   |   0.2 |  0.77
Output  | 0.000137   | 0.00015576 | 0.00028163 |   0.0 |  0.00
Modify  | 1.0045     | 1.0056     | 1.0066     |   0.1 | 14.17
Other   |            | 0.006206   |            |       |  0.09

Nlocal:         919.25 ave         954 max         891 min
Histogram: 1 0 1 1 2 2 0 0 0 1
Nghost:           6213 ave        6234 max        6167 min
Histogram: 1 0 0 0 0 1 1 2 1 2
Neighs:         306855 ave      320717 max      293367 min
Histogram: 1 0 1 0 1 3 1 0 0 1

Total # of neighbors = 2454840
Ave neighs/atom = 333.81017
Ave special neighs/atom = 10.298885
Neighbor list builds = 41
Dangerous builds = 0

WARNING: 'reset_atom_ids' has been renamed to 'reset_atoms id'. Please update your input.

Resetting atom IDs ...
PPPM initialization ...
  using 12-bit tables for long-range coulomb (src/kspace.cpp:342)
  G vector (1/distance) = 0.26111332
  grid = 20 20 20
  stencil order = 5
  estimated absolute RMS force accuracy = 0.038378082
  estimated relative force accuracy = 0.00011557445
  using double precision KISS FFT
  3d grid and FFT values/proc = 3375 1200
Generated 153 of 153 mixed pair_coeff terms from sixthpower mixing rule
Finding 1-2 1-3 1-4 neighbors ...
  special bond factors lj:    0        0        0       
  special bond factors coul:  0        0        0       
     3 = max # of 1-2 neighbors
     6 = max # of 1-3 neighbors
    12 = max # of 1-4 neighbors
    14 = max # of special neighbors
  special bonds CPU = 0.001 seconds
==================================Current bonds formed = 523 Minimum bonds desired = 558=======================================
==================================NVT PA POLYMERIZATION RUN: 300 C===============================
PPPM initialization ...
  using 12-bit tables for long-range coulomb (src/kspace.cpp:342)
  G vector (1/distance) = 0.26111332
  grid = 20 20 20
  stencil order = 5
  estimated absolute RMS force accuracy = 0.038378082
  estimated relative force accuracy = 0.00011557445
  using double precision KISS FFT
  3d grid and FFT values/proc = 3375 1200
Generated 153 of 153 mixed pair_coeff terms from sixthpower mixing rule
Per MPI rank memory allocation (min/avg/max) = 24.07 | 24.14 | 24.25 Mbytes
   Step          Temp          Press         Density       f_PArxn[1]  
    591842   300           -307.92797      1.22664        523          
    591900   299.34006      455.51552      1.22664        523          
    592000   296.34287     -589.06941      1.22664        523          
    592100   299.04257      833.42046      1.22664        523          
    592200   303.2454      -1321.5116      1.22664        523          
    592300   300.92522      307.35378      1.22664        523          
    592400   302.65106     -502.64862      1.22664        523          
    592500   304.09013     -683.90175      1.22664        523          
    592600   297.01758     -233.90897      1.22664        523          
    592700   296.11981     -677.07052      1.22664        523          
    592800   301.18164     -272.63509      1.22664        523          
    592842   300.53957      897.4003       1.22664        523          
Loop time of 6.12008 on 8 procs for 1000 steps with 7354 atoms

Performance: 14.117 ns/day, 1.700 hours/ns, 163.397 timesteps/s, 1.202 Matom-step/s
97.0% CPU use with 8 MPI tasks x no OpenMP threads

MPI task timing breakdown:
Section |  min time  |  avg time  |  max time  |%varavg| %total
---------------------------------------------------------------
Pair    | 3.2287     | 3.4206     | 3.5594     |   4.7 | 55.89
Bond    | 0.19522    | 0.20503    | 0.21651    |   1.3 |  3.35
Kspace  | 0.74952    | 0.89176    | 1.0856     |   9.4 | 14.57
Neigh   | 0.39408    | 0.39428    | 0.39453    |   0.0 |  6.44
Comm    | 0.054438   | 0.055734   | 0.057244   |   0.4 |  0.91
Output  | 0.00015242 | 0.00017888 | 0.00030079 |   0.0 |  0.00
Modify  | 1.1378     | 1.1471     | 1.1554     |   0.4 | 18.74
Other   |            | 0.005375   |            |       |  0.09

Nlocal:         919.25 ave         955 max         858 min
Histogram: 1 0 0 0 1 1 2 0 2 1
Nghost:         6224.5 ave        6291 max        6197 min
Histogram: 3 1 0 2 1 0 0 0 0 1
Neighs:         306718 ave      319849 max      279920 min
Histogram: 1 0 0 0 1 0 1 2 1 2

Total # of neighbors = 2453743
Ave neighs/atom = 333.661
Ave special neighs/atom = 10.298885
Neighbor list builds = 41
Dangerous builds = 0
PPPM initialization ...
  using 12-bit tables for long-range coulomb (src/kspace.cpp:342)
  G vector (1/distance) = 0.26111332
  grid = 20 20 20
  stencil order = 5
  estimated absolute RMS force accuracy = 0.038378082
  estimated relative force accuracy = 0.00011557445
  using double precision KISS FFT
  3d grid and FFT values/proc = 3375 1200
Generated 153 of 153 mixed pair_coeff terms from sixthpower mixing rule
Per MPI rank memory allocation (min/avg/max) = 24.07 | 24.14 | 24.25 Mbytes
   Step          Temp          Press         Density       f_PArxn[1]  
    592842   300.53957      897.4003       1.22664        523          
    592900   302.20288     -232.80937      1.2230693      523          
    593000   300.8329      -1104.5129      1.2247466      523          
    593100   296.20933     -215.49112      1.2237913      523          
    593200   299.26862      862.14905      1.2292917      523          
    593300   298.56046     -610.81335      1.2249738      523          
    593400   299.93489     -312.11676      1.2331177      523          
    593500   298.21893      705.25859      1.2276901      523          
    593600   294.00571     -303.79442      1.2287139      523          
    593700   295.29695      344.18388      1.236833       523          
    593800   297.80458     -424.79552      1.2343807      523          
    593842   296.76664     -666.09053      1.2366792      523          
Loop time of 7.30299 on 8 procs for 1000 steps with 7354 atoms

Performance: 11.831 ns/day, 2.029 hours/ns, 136.930 timesteps/s, 1.007 Matom-step/s
97.0% CPU use with 8 MPI tasks x no OpenMP threads

MPI task timing breakdown:
Section |  min time  |  avg time  |  max time  |%varavg| %total
---------------------------------------------------------------
Pair    | 4.2389     | 4.3938     | 4.5328     |   4.3 | 60.16
Bond    | 0.33931    | 0.34713    | 0.36447    |   1.3 |  4.75
Kspace  | 0.80965    | 0.96768    | 1.1278     |   9.9 | 13.25
Neigh   | 0.38716    | 0.3874     | 0.38757    |   0.0 |  5.30
Comm    | 0.057347   | 0.058508   | 0.060214   |   0.4 |  0.80
Output  | 0.000137   | 0.00015436 | 0.00026929 |   0.0 |  0.00
Modify  | 1.141      | 1.1416     | 1.1422     |   0.0 | 15.63
Other   |            | 0.006718   |            |       |  0.09

Nlocal:         919.25 ave         959 max         886 min
Histogram: 1 0 2 1 0 2 1 0 0 1
Nghost:        6247.75 ave        6291 max        6216 min
Histogram: 1 1 1 2 0 1 1 0 0 1
Neighs:         308876 ave      323678 max      291479 min
Histogram: 1 0 1 0 0 2 2 1 0 1

Total # of neighbors = 2471007
Ave neighs/atom = 336.00857
Ave special neighs/atom = 10.298885
Neighbor list builds = 41
Dangerous builds = 0

WARNING: 'reset_atom_ids' has been renamed to 'reset_atoms id'. Please update your input.

Resetting atom IDs ...
PPPM initialization ...
  using 12-bit tables for long-range coulomb (src/kspace.cpp:342)
  G vector (1/distance) = 0.26135374
  grid = 20 20 20
  stencil order = 5
  estimated absolute RMS force accuracy = 0.038144654
  estimated relative force accuracy = 0.00011487149
  using double precision KISS FFT
  3d grid and FFT values/proc = 3375 1200
Generated 153 of 153 mixed pair_coeff terms from sixthpower mixing rule
Finding 1-2 1-3 1-4 neighbors ...
  special bond factors lj:    0        0        0       
  special bond factors coul:  0        0        0       
     3 = max # of 1-2 neighbors
     6 = max # of 1-3 neighbors
    12 = max # of 1-4 neighbors
    14 = max # of special neighbors
  special bonds CPU = 0.001 seconds
==================================Current bonds formed = 523 Minimum bonds desired = 558=======================================
==================================NVT PA POLYMERIZATION RUN: 300 C===============================
PPPM initialization ...
  using 12-bit tables for long-range coulomb (src/kspace.cpp:342)
  G vector (1/distance) = 0.26135374
  grid = 20 20 20
  stencil order = 5
  estimated absolute RMS force accuracy = 0.038144654
  estimated relative force accuracy = 0.00011487149
  using double precision KISS FFT
  3d grid and FFT values/proc = 3375 1200
Generated 153 of 153 mixed pair_coeff terms from sixthpower mixing rule
Per MPI rank memory allocation (min/avg/max) = 24.07 | 24.14 | 24.25 Mbytes
   Step          Temp          Press         Density       f_PArxn[1]  
    593842   300           -629.78075      1.2366792      523          
    593900   301.93276      156.67403      1.2366792      523          
    594000   300.94519      190.56552      1.2366792      523          
    594100   296.75459      972.26014      1.2366792      523          
    594200   300.31286     -265.71183      1.2366792      523          
    594300   303.90057     -761.27925      1.2366792      523          
    594400   299.83228      383.35619      1.2366792      523          
    594500   301.03098     -814.87298      1.2366792      523          
    594600   301.57428     -268.66724      1.2366792      523          
    594700   295.54813     -216.77593      1.2366792      523          
    594800   299.73523      794.20567      1.2366792      523          
    594842   296.86422      223.03395      1.2366792      523          
Loop time of 5.60517 on 8 procs for 1000 steps with 7354 atoms

Performance: 15.414 ns/day, 1.557 hours/ns, 178.407 timesteps/s, 1.312 Matom-step/s
98.7% CPU use with 8 MPI tasks x no OpenMP threads

MPI task timing breakdown:
Section |  min time  |  avg time  |  max time  |%varavg| %total
---------------------------------------------------------------
Pair    | 3.2208     | 3.4243     | 3.5571     |   5.0 | 61.09
Bond    | 0.19114    | 0.20075    | 0.20656    |   1.0 |  3.58
Kspace  | 0.5666     | 0.69944    | 0.90347    |  11.2 | 12.48
Neigh   | 0.36746    | 0.36748    | 0.36752    |   0.0 |  6.56
Comm    | 0.051488   | 0.052926   | 0.054467   |   0.5 |  0.94
Output  | 0.00013671 | 0.00015481 | 0.00027679 |   0.0 |  0.00
Modify  | 0.84828    | 0.85549    | 0.86422    |   0.5 | 15.26
Other   |            | 0.004587   |            |       |  0.08

Nlocal:         919.25 ave         945 max         877 min
Histogram: 1 0 0 0 1 1 1 2 1 1
Nghost:        6255.75 ave        6298 max        6238 min
Histogram: 2 3 0 0 2 0 0 0 0 1
Neighs:         309106 ave      319643 max      290763 min
Histogram: 1 0 0 1 0 0 3 0 1 2

Total # of neighbors = 2472845
Ave neighs/atom = 336.2585
Ave special neighs/atom = 10.298885
Neighbor list builds = 40
Dangerous builds = 0
