LAMMPS data file via write_data, version 29 Aug 2024, timestep = 1636, units = real

840 atoms
18 atom types
840 bonds
18 bond types
1260 angles
25 angle types
2040 dihedrals
31 dihedral types
990 impropers
9 improper types

0 41.774299502515 xlo xhi
0 41.774299502515 ylo yhi
0 41.774299502515 zlo zhi

Masses

1 12.01
2 12.01
3 12.01
4 16
5 1.008
6 14.01
7 14.01
8 1.008
9 12.01
10 1.008
11 16
12 16
13 1.008
14 1.008
15 16
16 1.008
17 12.01
18 35.45

Pair Coeffs # lj/charmm/coul/long

1 0.086 3.39967 0.086 3.39967
2 0.086 3.39967 0.086 3.39967
3 0.086 3.39967 0.086 3.39967
4 0.21 2.9599 0.21 2.9599
5 0.015 2.5996 0.015 2.5996
6 0.17 3.25 0.17 3.25
7 0.17 3.25 0.17 3.25
8 0.0157 1.0691 0.0157 1.0691
9 0.1094 3.39967 0.1094 3.39967
10 0.01569 2.64954 0.01569 2.64954
11 0.21 2.9599 0.21 2.9599
12 0.21 2.9599 0.21 2.9599
13 0.015 2.5996 0.015 2.5996
14 0.015 2.5996 0.015 2.5996
15 0.155865 3.178 0.155865 3.178
16 0 0 0 0
17 0.06844 3.407 0.06844 3.407
18 0.265 3.47094 0.265 3.47094

Bond Coeffs # harmonic

1 461.1 1.3984
2 345.8 1.086
3 345.9 1.4906
4 345.9 1.4906
5 637.7 1.2183
6 637.7 1.2183
7 417.9 1.3859
8 417.9 1.3859
9 404.6 1.0121
10 404.6 1.0121
11 300.9 1.5375
12 330.6 1.0969
13 427.6 1.379
14 400.1 1.3513
15 371.4 0.973
16 371.4 0.973
17 450 1.0118
18 267.4 1.8029

Angle Coeffs # harmonic

1 66.6 120.02
2 64.3 120.33
3 64.3 120.33
4 48.2 119.88
5 68.7 122.6
6 68.7 122.6
7 68.3 120.95
8 68.3 120.95
9 48.4 116.07
10 48.4 116.07
11 63.8 123.71
12 48.3 117.55
13 67.7 115.25
14 74.2 123.05
15 62.9 111.51
16 46.3 109.8
17 39.4 107.58
18 69.2 113.45
19 49.9 106.55
20 75.9 122.1
21 40.1 115.12
22 55 108.15
23 61.111 114.705
24 58.8 120.69
25 40.1 115.12

Dihedral Coeffs # charmm

1 3.625 2 180 0.5
2 3.625 2 180 0
3 3.625 2 180 0
4 3.625 2 180 0
5 0.45 2 180 0
6 0.45 2 180 0
7 3.625 2 180 0
8 3.625 2 180 0
9 3.625 2 180 0
10 3.625 2 180 0
11 3.625 2 180 0
12 3.625 2 180 0
13 3.625 2 180 0
14 1.05 2 180 0
15 1.05 2 180 0
16 0.45 2 180 0
17 2.3 2 180 0
18 2.3 2 180 0
19 1.05 2 180 0
20 2.3 2 180 0
21 2.3 2 180 0
22 1 2 180 0
23 2.3 2 180 0
24 2.3 2 180 0
25 0.25 2 180 0
26 0.2 1 180 0
27 0.18 3 180 0
28 0.16 3 0 0
29 0.15 3 0 0
30 10.5 2 180 0
31 1 2 180 0

Improper Coeffs # harmonic

1 1.1 180
2 1.1 180
3 1.1 180
4 1.1 180
5 1.1 180
6 1.1 180
7 10.5 180
8 1.1 180
9 1.1 180

Atoms # full

22 44 18 -0.1036 1.3132875009576914 3.2864241047811973 10.801459156205842 1 0 0
30 10 5 0.10745 7.396990568351513 20.093743916248577 14.300230598757986 0 0 0
189 10 3 -0.23 6.883220164583522 20.86530019011751 14.864287111336713 0 0 0
31 10 5 0.10745 8.33911109670241 20.878859991011932 16.45425243384921 0 0 0
16 1 5 0.10745 0.019930597032790594 0.18592955770992076 9.294695988827261 0 0 0
38 4 5 0.10745 11.547667313635486 20.191162949224847 31.80639184420367 0 0 0
37 4 8 0.23105 11.293674288079034 16.89197233367063 28.449340995553104 0 0 0
46 6 8 0.23105 10.892345564096061 16.707176686034465 33.16206957093629 0 0 0
50 6 5 0.10745 11.807335110109095 14.531757186620844 33.8043894535419 0 0 0
53 6 3 0.1716 12.89988116470775 16.223023237209226 32.99200641046424 0 0 0
54 6 3 -0.23 12.768486592278864 14.891930206743542 33.4446150272072 0 0 0
55 6 3 0.1716 13.8832020650715 14.022448700470958 33.430882638109956 0 0 0
56 6 7 -0.4621 13.75453334701383 12.717966903917286 33.888214444802614 0 0 0
74 6 8 0.23105 11.88758178227494 17.949926927485553 32.486666254927506 0 0 0
58 6 8 0.23105 14.552080357668745 12.095272435573886 33.861876339064686 0 0 0
34 4 3 -0.1565 11.771166367559108 18.8217995957853 30.141690849680767 0 0 0
35 4 5 0.10745 10.741420471450006 18.47760205785901 30.20008356333492 0 0 0
36 4 7 -0.4621 12.16955955634375 17.35966363250422 28.249490340421346 0 0 0
45 4 8 0.23105 12.837225861682029 16.868395474473818 27.66732492005587 0 0 0
48 6 5 0.10745 16.004128443515754 13.835474332234224 32.9723760809614 0 0 0
49 6 3 -0.1565 15.133856747314058 14.48870047773198 32.97495708217705 0 0 0
51 6 3 -0.1565 14.147232549309956 16.6637825828086 32.50431747827361 0 0 0
52 6 3 -0.23 15.247303003753462 15.788996114513335 32.45320324923183 0 0 0
60 4 3 -0.23 12.22105570425835 19.79456277804113 31.053296106450002 0 0 0
61 4 3 0.1716 12.632813837248047 18.314002846247696 29.146780555149128 0 0 0
62 4 3 -0.23 13.95846513769843 18.79902961378795 29.06916607800009 0 0 0
63 4 3 0.1716 14.423540048833177 19.74739230182522 30.010570147105614 0 0 0
64 4 7 -0.4621 15.728951372374722 20.217870984826504 29.958071625461336 0 0 0
272 40 3 -0.1956 17.334725576303253 19.68882858764708 35.450186081724674 0 0 0
66 4 5 0.10745 14.624272395664873 18.43393947427826 28.2910284807669 0 0 0
67 4 3 -0.1565 13.56533021967607 20.200372064783767 31.03298854203291 0 0 0
736 30 3 -0.1565 19.16341009291782 20.55087322079743 32.521477451618544 0 0 0
69 6 5 0.10745 16.197787368761876 16.131878048848836 32.057038984852724 0 0 0
75 6 5 0.10745 14.263471651319495 17.68060096162966 32.139135659467726 0 0 0
70 4 8 0.23105 16.268258509682006 20.06900809699658 29.114698859174034 0 0 0
71 30 5 0.10745 19.826216995887943 18.51241981194956 32.80075499501192 0 0 0
744 30 3 -0.23 19.919085919698876 19.54043773960022 33.137598704229816 0 0 0
47 6 8 0.23105 12.962576415158829 12.473398366636806 34.47818419768476 0 0 0
57 6 7 -0.4621 11.818673463354315 17.091581872911295 33.02395708530453 0 0 0
76 32 3 0.014 14.226169130263374 14.025533531171872 37.49238048419104 0 0 -1
77 32 3 -0.1956 12.95317196274443 14.465485111358475 37.911984514790305 0 0 -1
78 32 3 0.014 12.854408483207981 15.336642987052718 39.02681691649426 0 0 -1
79 32 1 0.6797 11.761008338398295 13.99807990975271 37.13306222498595 0 0 -1
80 32 4 -0.5760999999999999 11.848362753272612 13.13724142192561 36.27468382485926 0 0 -1
82 32 5 0.1816 11.897520187431148 15.707559947960334 39.380232323031464 0 0 -1
83 32 18 -0.1036 10.905882199630533 14.413144988256175 37.331499959349486 0 0 -1
5 32 3 -0.1956 15.396295345333234 14.457942902533414 38.156753515099965 0 0 -1
81 32 5 0.1816 14.28522143576392 13.382163453211188 36.624056411029066 0 0 -1
6 32 4 -0.5760999999999999 12.730011767780166 17.02021986145402 41.269161409658054 0 0 -1
14 32 18 -0.1036 14.943721154656227 17.137054839014052 41.50948340585123 0 0 -1
7 32 3 -0.1956 14.012195593655765 15.76012594508068 39.71462199261711 0 0 -1
105 7 3 -0.1565 13.95656082493162 19.57430198457518 38.469501742955956 0 0 0
12 7 5 0.10745 15.959352835388907 19.352031247561953 39.25719413943955 0 0 0
13 7 5 0.10745 13.689370579830682 20.34570654212081 39.18830940992444 0 0 0
4 32 3 0.014 15.282327865135157 15.31440015388365 39.27214380892499 0 0 -1
104 7 3 -0.23 15.245805993751887 19.014346457666594 38.51279789622327 0 0 0
93 7 8 0.23105 11.252283560764983 19.74009734735449 36.56955004517862 0 0 0
94 7 8 0.23105 14.450639514236666 16.406399850963894 34.91812782954281 0 0 0
95 7 5 0.10745 16.55941133912521 17.50029469800416 37.71875271143716 0 0 0
96 7 3 -0.1565 15.581127744993548 17.967004342759893 37.63880285204183 0 0 0
97 7 5 0.10745 12.696382957939683 17.853738578475305 35.7920455940782 0 0 0
98 7 8 0.23105 11.54184635270838 20.47730446043091 38.11121746703528 0 0 0
99 7 7 -0.4621 11.769258337058192 19.753309692433277 37.43987368983607 0 0 0
100 7 7 -0.4621 15.03051398529091 16.571369643910963 35.735112647057385 0 0 0
101 7 3 0.1716 14.67582075187077 17.570124175051344 36.63230403011205 0 0 0
102 7 3 -0.23 13.398419282497247 18.16966941591651 36.55931240658208 0 0 0
103 7 3 0.1716 13.027844230570212 19.167963468633967 37.48872488451992 0 0 0
108 40 5 0.1816 20.195674297430728 17.804267204265383 37.345825773787716 0 0 0
3 32 5 0.1816 16.197084885605165 15.637183402166377 39.75644581697926 0 0 -1
106 7 8 0.23105 15.997704662822844 16.271665928321298 35.67194595400462 0 0 0
273 40 3 0.014 17.64481656299016 18.347867142318872 35.11105208058679 0 0 0
10 32 18 -0.1036 16.89967672955144 12.81065462677499 36.4133391937352 0 0 -1
269 40 3 0.014 19.39857360709113 18.307165265318293 36.80878132777232 0 0 0
274 40 3 -0.1956 18.666056654198403 17.648948300021036 35.791384868170134 0 0 0
107 40 18 -0.1036 20.080723390264854 15.65663742981694 35.79757586225521 0 0 0
278 40 5 0.1816 17.11646475615054 17.822181704780267 34.32194849423852 0 0 0
110 40 1 0.6797 18.924017147497935 16.228118718409913 35.39730767102536 0 0 0
109 40 4 -0.5760999999999999 18.111472337087523 15.6033283296352 34.7365732881371 0 0 0
11 32 4 -0.5760999999999999 17.76119527124247 14.630593002252947 38.1286506713814 0 0 -1
9 32 1 0.6797 16.765812997237568 14.086567998361804 37.682358171666806 0 0 -1
229 30 5 0.10745 18.49957888909897 20.300869206919888 31.69713442478948 0 0 0
279 40 18 -0.1036 15.743162719309503 20.02598484681568 34.07639924909373 0 0 0
8 32 1 0.6797 13.835493421865216 16.688510723005574 40.879617840966176 0 0 -1
270 40 3 -0.1956 19.10519399121786 19.64408058944592 37.15205834493118 0 0 0
275 40 1 0.6797 16.263091143740123 20.478527526399482 34.76028167396678 0 0 0
412 20 5 0.10745 0.3881546736533772 19.577650823358663 24.77015763299291 1 0 0
114 40 1 0.6797 19.937251833557408 20.307404637348345 38.20341699769829 0 0 0
271 40 3 0.014 18.067626418550308 20.324972284918676 36.473365595036526 0 0 0
743 30 3 -0.1565 20.743738569676623 19.84922265913128 34.235563141320185 0 0 0
166 52 18 -0.1036 9.823270273914702 36.912066798061346 12.584723899551562 0 0 0
133 9 3 -0.1565 18.53736213011866 37.18639047240162 7.744523429850086 0 0 0
134 9 3 0.1716 17.56215534852683 36.23244745210025 7.388153236234301 0 0 0
135 9 5 0.10745 18.52293380733987 38.178726197122934 7.299171427664648 0 0 0
136 9 7 -0.4621 16.56354149883951 36.56120097290302 6.483065013056874 0 0 0
137 9 8 0.23105 16.72197178569187 37.30529734949851 5.814972750468666 0 0 0
139 9 8 0.23105 15.843093546617427 35.873932766246334 6.274317774154439 0 0 0
141 11 5 0.10745 10.835710077335634 25.853266040020635 10.989641907103636 0 0 0
142 11 5 0.10745 12.414291368365395 23.96931229140343 11.344283005147307 0 0 0
143 11 3 -0.1565 11.462969575117643 23.979941979263355 11.870418724318837 0 0 0
145 11 8 0.23105 7.095249135226417 24.77673608563241 13.641326318554551 0 0 0
146 11 7 -0.4621 7.7905409857534105 24.10332059905045 13.93426286395165 0 0 0
147 11 8 0.23105 12.739996674852648 21.74035736727681 12.22571842935829 0 0 0
148 11 3 -0.1565 9.363954239094564 25.09948317377263 12.38486912451864 0 0 0
149 11 3 -0.23 10.570737185170174 25.046183958625026 11.664135732120705 0 0 0
150 11 3 0.1716 8.995093187398835 24.047596414645653 13.248466047017512 0 0 0
151 11 3 -0.23 9.858562463921336 22.93934102598223 13.395222987964045 0 0 0
152 11 5 0.10745 8.704927356340114 25.953719722445047 12.2520821063739 0 0 0
153 11 3 0.1716 11.089442590705529 22.902722351599913 12.700539225263347 0 0 0
154 11 7 -0.4621 11.947598240865139 21.821618395660604 12.85010517438068 0 0 0
118 9 3 0.1716 18.622607111342074 34.62482215230129 8.901979875407669 0 0 0
119 9 7 -0.4621 18.677677611689226 33.358330135553935 9.469105240983069 0 0 0
120 9 8 0.23105 19.45519208506823 33.12511527571105 10.074662256066583 0 0 0
121 9 5 0.10745 16.87700476092987 34.195725610837236 7.6789134404770545 0 0 0
124 9 8 0.23105 18.1806525205885 32.596468940845625 9.023698290281933 0 0 0
209 36 3 0.014 1.6760744708174817 28.19270934188497 18.263713694656303 0 0 0
208 36 3 -0.1956 0.533793065180893 28.945713170197294 18.614376417800788 0 0 0
210 36 4 -0.5760999999999999 1.813054847313152 30.377557981390886 20.010511519490443 0 0 0
205 10 8 0.23105 8.103465015689014 22.284973181620103 18.411655684614953 0 0 0
211 36 5 0.1816 2.6273574412276752 28.491869912066203 18.694427419005944 0 0 0
207 36 1 0.6797 0.7187807869754796 30.099763782495437 19.554908258459736 0 0 0
23 2 8 0.23105 12.429471540910564 40.045127993963504 12.81314802296833 0 -1 0
27 2 3 -0.23 14.011680881682738 38.97703499890121 10.990420432088687 0 -1 0
155 52 3 0.014 12.453186829084126 36.03369736993791 11.72183667792254 0 0 0
156 52 3 0.014 13.891646026453065 35.35027088176503 9.873283878011733 0 0 0
157 52 3 -0.1956 12.8135520213533 35.48064765016889 8.971848501760816 0 0 0
158 52 3 0.014 11.54778476403915 35.89293426146381 9.461431372112505 0 0 0
159 52 3 -0.1956 11.360226827793026 36.17090080507495 10.832287760886443 0 0 0
160 52 1 0.6797 10.005174700894246 36.63624113900139 11.27428967388434 0 0 0
161 52 1 0.6797 13.072761734332934 35.20965131791407 7.5204526404129695 0 0 0
162 52 4 -0.5760999999999999 9.084461846401984 36.76560913830884 10.487719448862288 0 0 0
163 52 4 -0.5760999999999999 14.150732045044624 34.80770099227706 7.11760933806519 0 0 0
165 52 5 0.1816 10.694181903353229 36.022647425626744 8.80374039447503 0 0 0
167 52 18 -0.1036 12.344116636940736 35.36663495853521 6.897753059227187 0 0 0
173 2 5 0.10745 12.298605362488907 38.92803561185043 7.482985783753995 0 -1 0
174 2 5 0.10745 14.699605596549263 38.328356770364294 7.688803900581745 0 -1 0
175 2 3 -0.1565 14.139077934462932 38.61126273909639 8.575853144101787 0 -1 0
178 2 3 0.1716 14.746532077977013 38.58148931958545 9.848184937307304 0 -1 0
179 2 5 0.10745 11.019813345132423 39.666908622623644 9.471995244754334 0 -1 0
180 2 3 -0.23 12.778840293544334 38.94449991251975 8.456177356318099 0 -1 0
181 2 3 -0.1565 12.059729319429824 39.36962594145241 9.587668487283626 0 -1 0
182 52 3 -0.1956 13.719054862867972 35.628028631949064 11.249494564774517 0 0 0
185 52 5 0.1816 12.356057166609578 36.253244172360716 12.778815692124285 0 0 0
28 2 3 0.1716 12.665635049251698 39.38788944080505 10.860667561820959 0 -1 0
26 2 7 -0.4621 11.931131128984786 39.78648118127014 11.969706497073034 0 -1 0
24 2 5 0.10745 14.48448124187852 38.96408181450641 11.96993363396135 0 -1 0
25 2 8 0.23105 11.034176840394556 40.23129955722007 11.811406548008378 0 -1 0
117 9 3 -0.23 17.615724734044974 34.942998053894044 7.961819972229723 0 0 0
122 9 3 -0.1565 19.55823326933883 35.60616581604669 9.289788299326037 0 0 0
123 9 5 0.10745 20.319321165676826 35.38173008240529 10.03297331809607 0 0 0
116 9 3 -0.23 19.554508265658377 36.863451841527095 8.660935097773594 0 0 0
138 9 5 0.10745 20.30668990253499 37.60310665477869 8.917832352475767 0 0 0
164 52 5 0.1816 14.85810600169955 35.05878995881654 9.47959780340649 0 0 0
176 2 8 0.23105 16.5896472418383 37.93838717847333 9.13328925672348 0 -1 0
177 2 7 -0.4621 16.067341478009762 38.17036603786196 9.97210015246914 0 -1 0
183 52 1 0.6797 14.844130576664238 35.553391127512946 12.233526966933294 0 0 0
184 52 4 -0.5760999999999999 14.685213734952464 35.84402439833735 13.405961872693625 0 0 0
187 52 18 -0.1036 16.458833390389856 35.01681710690133 11.639883340651533 0 0 0
29 2 8 0.23105 16.600800507973517 38.45956475738269 10.783352745930447 0 -1 0
675 36 5 0.1816 0.2450628985669202 25.896510008464997 16.18185981069948 0 0 0
191 10 3 -0.23 5.574201931877391 22.89503498837124 16.31438027848652 0 0 0
192 10 3 0.1716 5.020494998050186 22.418111283170447 15.103587055083857 0 0 0
193 10 7 -0.4621 3.848153055973566 22.967138356578467 14.603184889392129 0 0 0
194 10 8 0.23105 3.339414466395135 22.473835418057057 13.880934795805617 0 0 0
195 10 5 0.10745 5.075469328710236 23.6930998705261 16.857940253896007 0 0 0
196 10 3 -0.1565 5.6549367943379005 21.370427446999592 14.404538188070841 0 0 0
198 10 8 0.23105 3.344786038237872 23.656737635093695 15.155562571768003 0 0 0
199 36 3 -0.1956 1.5707258088166676 27.08691159069707 17.381941487094664 0 0 0
200 36 1 0.6797 2.7471588902867685 26.2485563476561 16.97752357139825 0 0 0
201 36 4 -0.5760999999999999 2.623546457953587 25.28562840830021 16.241815859329506 0 0 0
202 36 18 -0.1036 3.619448546039942 26.497794549417137 17.32514465103178 0 0 0
672 36 3 0.014 0.3073817477463337 26.74425734166875 16.85398452711849 0 0 0
301 41 1 0.6797 3.3996507847077138 32.8598279013307 0.3047170534434897 0 0 1
140 11 8 0.23105 7.452643788281244 23.265153940154633 14.39671164804531 0 0 0
144 11 5 0.10745 9.576450242686859 22.117230475457646 14.047933388707289 0 0 0
206 10 8 0.23105 6.760801707680546 23.36521491550642 18.627806398005255 0 0 0
188 10 3 -0.1565 7.4114234955445 21.313029685380823 16.08866104450425 0 0 0
190 10 3 0.1716 6.766758984845009 22.331285415658513 16.821204646629997 0 0 0
204 10 7 -0.4621 7.31541747582435 22.781572472314373 18.014534546195176 0 0 0
302 41 18 -0.1036 4.600239465459611 32.35441507255462 1.5534006984196094 0 0 1
299 41 4 -0.5760999999999999 2.710846850310076 33.84938754543362 0.47261348429758165 0 0 1
197 10 5 0.10745 5.231261470253487 20.98613010349517 13.479537593661714 0 0 0
203 11 8 0.23105 11.601036751031081 20.976217604158865 13.285225367099706 0 0 0
17 1 5 0.10745 0.18914140959996847 41.69570149713723 11.758319381893225 0 -1 0
266 49 4 -0.5760999999999999 0.5149636458525451 35.524449564569274 32.76203344625907 1 0 0
223 3 8 0.23105 0.5454653581001201 36.039419446541075 24.43059046128054 0 -1 0
224 3 8 0.23105 0.6695498733895494 37.40352851495524 25.490398635901943 0 -1 0
212 12 8 0.23105 15.7408264702022 23.769886322174827 27.558918014199588 0 0 0
216 12 7 -0.4621 15.152806331535091 24.38644108536481 28.10679527617375 0 0 0
217 12 8 0.23105 14.180009169869336 24.12631943096672 28.21661525545703 0 0 0
213 12 3 -0.1565 16.76744176146856 26.14538715503818 27.738008414756113 0 0 0
214 12 5 0.10745 17.428385604218807 25.446387248070284 27.23032097677243 0 0 0
215 12 3 0.1716 15.525626224878943 25.717034272414143 28.25029500955342 0 0 0
226 12 3 -0.23 17.125809646080743 27.50182551211262 27.8130602137491 0 0 0
227 12 5 0.10745 18.05604749713325 27.843683702465608 27.37122251029279 0 0 0
228 39 18 -0.1036 13.652283727281992 23.773466615553843 30.999517350569224 0 0 0
291 38 18 -0.1036 1.6681521048693777 30.99651914536462 33.113435664569835 0 0 0
231 39 3 -0.1956 16.25726666227457 25.648396855828256 34.64088677961087 0 0 0
232 39 3 0.014 16.00959137100685 24.657048661200815 33.65927114160727 0 0 0
233 39 3 -0.1956 15.057776031512237 24.87598952731377 32.64320790600554 0 0 0
234 39 1 0.6797 14.845445580332642 23.792089923515604 31.633416670111398 0 0 0
235 39 1 0.6797 17.275648694583943 25.472332437768998 35.726794924632344 0 0 0
236 39 4 -0.5760999999999999 15.687991074277823 22.940389022992232 31.40533088948995 0 0 0
238 39 5 0.1816 16.536463654200585 23.709082602012078 33.65741558953586 0 0 0
239 39 18 -0.1036 17.653548391453484 24.586685751806762 35.85734884771525 0 0 0
253 39 3 0.014 14.343484915337397 26.09719948363181 32.609395274694926 0 0 0
254 39 3 -0.1956 14.578833775714454 27.094473554540713 33.579903788498484 0 0 0
255 39 3 0.014 15.54083707916563 26.864260001184917 34.59040285942857 0 0 0
258 39 5 0.1816 13.610978619382434 26.298847042067194 31.836066724836826 0 0 0
693 26 5 0.10745 19.194872109999558 26.020766086990424 29.26560338902971 0 0 0
65 4 8 0.23105 15.95748987891699 21.037851197996474 30.514647557867367 0 0 0
276 40 4 -0.5760999999999999 16.04241142259786 21.6478576744462 35.031396521914104 0 0 0
776 55 3 0.014 20.36704356368443 29.05076347696865 32.32301501389872 0 0 0
230 30 8 0.23105 17.960899386921504 22.646187742070058 31.5622578589261 0 0 0
769 26 3 0.1716 18.754438780159724 26.251810631420465 31.378177354801856 0 0 0
733 30 8 0.23105 19.14375917465445 23.777187676471634 32.11391796580336 0 0 0
739 30 7 -0.4621 18.6589357544007 22.896043782726988 32.25580530833548 0 0 0
692 26 3 -0.23 19.549458874198073 25.85712757855794 30.279490835012883 0 0 0
740 30 3 0.1716 19.330215199465094 21.88853134561598 32.927764047387015 0 0 0
246 12 5 0.10745 13.731201108302962 26.309980954283137 29.32501360264195 0 0 0
257 39 4 -0.5760999999999999 13.047817764812825 28.58166315381331 32.55215144993462 0 0 0
218 26 8 0.23105 17.124768717017545 26.87784922223435 30.252958365276168 0 0 0
772 55 5 0.1816 18.852011893343114 28.949524935923275 35.378566469858626 0 0 0
240 12 3 -0.1565 16.309607598813216 28.40497070922329 28.516276628303046 0 0 0
241 12 3 0.1716 15.088356690311068 27.983814490416062 29.081675990699715 0 0 0
242 12 3 -0.23 14.688011685458592 26.636125906908212 28.927790847264212 0 0 0
243 12 5 0.10745 16.62325110562282 29.443114635429918 28.60015425096951 0 0 0
244 12 7 -0.4621 14.297410612587907 28.89595556086766 29.768302543435123 0 0 0
245 12 8 0.23105 14.633372695844784 29.843878177596807 29.88834040138738 0 0 0
247 12 8 0.23105 13.588417830027442 28.572303371026745 30.419994816921324 0 0 0
248 55 4 -0.5760999999999999 17.061528859048668 29.57061204816421 33.753883630488815 0 0 0
249 55 1 0.6797 17.98807062332262 29.68047310963144 32.96892575038636 0 0 0
250 55 18 -0.1036 17.72126485253383 30.404134799567817 31.339299385077876 0 0 0
251 26 7 -0.4621 17.514111048086377 26.843476243071674 31.191181880710054 0 0 0
252 26 8 0.23105 16.86291805020044 26.874500982195293 31.966358193179957 0 0 0
256 39 1 0.6797 13.790443773274648 28.365621772894343 33.49474437892813 0 0 0
259 39 5 0.1816 15.749958352847665 27.619532200020085 35.339898674755084 0 0 0
741 30 3 -0.23 20.167498869520493 22.19753658246482 34.02453875887099 0 0 0
775 55 3 -0.1956 19.365956009869954 29.20725125358175 33.30980892626124 0 0 0
774 55 3 0.014 19.645439720266186 28.84521912299026 34.64567365219563 0 0 0
296 41 5 0.1816 4.754654731784625 30.514750532779562 41.380665264118456 0 0 0
297 41 3 0.014 2.3693320698617617 32.44226223465664 39.84219652618673 0 0 0
261 51 1 0.6797 1.0815308296167077 38.984219820806544 34.590105092524006 0 -1 0
262 51 4 -0.5760999999999999 1.6011047720159979 39.4411478117278 35.59295677921959 0 -1 0
263 51 18 -0.1036 1.6185957630229653 38.74378152288957 33.81774912203137 0 -1 0
294 41 3 0.014 4.048737165611913 30.858627266925126 40.63284707404147 0 0 0
295 41 4 -0.5760999999999999 5.532104471991518 28.526917826026292 40.173675359945385 0 0 0
298 41 3 -0.1956 3.2830040788091073 32.0298090381255 40.83706041396152 0 0 0
770 26 5 0.10745 18.664909732268182 26.384225615219105 33.535720624436934 0 0 0
112 40 18 -0.1036 19.455622601595667 21.960961427654578 38.74186545983446 0 0 0
237 39 4 -0.5760999999999999 17.643530397288348 26.413903164761393 36.40847668798695 0 0 0
835 38 1 0.6797 0.1377594403076057 30.17047682281526 32.63765710225497 0 0 0
829 55 18 -0.1036 20.382804875850244 28.194532064954668 37.384979808650364 0 0 0
768 26 3 -0.23 20.514438260360205 25.492769832657228 32.89860980202473 0 0 0
767 26 3 -0.1565 19.246510470464816 26.057318161490688 32.6826139133812 0 0 0
688 26 3 0.1716 20.80116399122541 25.23569859632841 30.494561224561355 0 0 0
277 40 5 0.1816 17.82349688810438 21.351472891123848 36.71213502618945 0 0 0
260 39 18 -0.1036 13.925062944390087 29.54799882598705 34.851006166471166 0 0 0
68 4 5 0.10745 13.922000198976647 20.904218903574282 31.77946285606067 0 0 0
280 41 3 -0.1956 3.912136276972593 30.10514149374452 39.44811823309515 0 0 0
281 41 3 0.014 2.994261846857412 30.53457901051874 38.4555496813696 0 0 0
282 41 18 -0.1036 4.66819695744711 28.35844372368183 38.48245693110805 0 0 0
796 55 5 0.1816 20.166832284263045 29.28608882126728 31.284200655154848 0 0 0
300 41 5 0.1816 1.7965564223194141 33.34391404300732 40.029960485584326 0 0 0
286 41 5 0.1816 2.860366861536085 29.984392718249605 37.530414633297376 0 0 0
288 41 4 -0.5760999999999999 1.1499593191662658 31.455206098425407 36.52261549042084 0 0 0
289 38 5 0.1816 1.1006415781356897 29.27046205261208 35.1024495909754 0 0 0
290 41 1 0.6797 4.754021183596453 28.872285210690407 39.3018781199551 0 0 0
285 41 18 -0.1036 0.4873737786525336 33.18146394815644 37.76015576731003 0 0 0
292 41 1 0.6797 1.2552846501393373 32.08835095605071 37.55920806680642 0 0 0
293 41 3 -0.1956 2.21661573028966 31.69777632504552 38.64549223007598 0 0 0
115 38 4 -0.5760999999999999 1.3462335512122567 28.03471785781444 37.23895142155714 0 0 0
737 30 5 0.10745 20.263889797100475 23.22348416819388 34.36341821957227 0 0 0
283 38 3 0.014 0.1302744493633088 28.871249113441888 34.83483758548425 0 0 0
92 5 5 0.10745 0.25666930209972827 21.298480234119413 37.968228943958074 0 0 0
222 3 7 -0.4621 0.11011212924608184 36.85046683260287 24.853322619420105 0 -1 0
287 38 1 0.6797 0.20629850941716377 27.665191795178238 37.02066754283144 0 0 0
419 28 5 0.10745 20.66023582184283 36.11844944754825 30.77645076831816 0 0 0
742 30 3 0.1716 20.879144926116105 21.176476786101148 34.68665179648804 0 0 0
305 13 5 0.10745 25.566944637069295 2.9355725318027397 6.693131652695905 0 0 0
648 14 8 0.23105 34.661249689992594 3.1030408430578142 6.750591105706145 0 0 0
18 1 3 -0.1565 40.984395937650696 0.015420166694917331 11.293376248932587 -1 0 0
304 13 3 -0.1565 26.395711833368512 2.2384877197489237 6.601173315797609 0 0 0
307 13 3 0.1716 27.67908494846699 2.6923928402978863 6.231825631893853 0 0 0
310 45 18 -0.1036 32.29470265026702 7.9097911182354625 2.8239845936401777 0 0 1
311 56 3 0.014 33.119970717728314 3.8455135187536182 1.9411030613867906 0 0 0
312 56 18 -0.1036 31.505191147888873 4.210794729261595 4.327023256560603 0 0 0
313 56 5 0.1816 32.30315272750964 4.55183116066373 1.8477595697701112 0 0 0
336 13 7 -0.4621 27.893280737575896 4.045666155702059 6.012187407805344 0 0 0
337 13 8 0.23105 27.100681399068513 4.674382023897853 6.109807506495609 0 0 0
338 13 8 0.23105 28.798578123257315 4.432280850945692 6.2566319584687955 0 0 0
636 56 3 -0.1956 33.37070285980238 3.153662614521593 3.152760737836433 0 0 0
514 45 5 0.1816 34.3205310460664 7.358686339325744 1.178275214798688 0 0 1
635 56 1 0.6797 32.54783680500397 3.354742549706474 4.3911573894942855 0 0 0
633 56 5 0.1816 34.618192759835445 1.7258160083325083 4.152123310619801 0 0 0
628 13 3 -0.23 28.747058077910914 1.7724769015039799 6.117602900491442 0 0 0
631 13 5 0.10745 29.73918138298067 2.1227796957790774 5.848346279953834 0 0 0
634 56 4 -0.5760999999999999 32.80481875948042 2.781088333109344 5.437184831387748 0 0 0
637 56 3 0.014 34.447000017846534 2.2410880593147047 3.2125067547679413 0 0 0
314 14 3 -0.23 37.7584411493905 2.0959265624462686 6.111776872829606 0 0 0
19 14 8 0.23105 40.62330986388974 1.575935921916795 4.483199839062649 0 0 0
315 14 3 0.1716 38.78866888880762 2.265579944941303 5.15960883171453 0 0 0
316 14 3 -0.1565 38.66422534906527 3.2569066762563845 4.163159920719955 0 0 0
351 14 7 -0.4621 39.92825214920784 1.4740342622069014 5.212487072476548 0 0 0
644 14 3 -0.23 37.48126091817869 4.010254992492754 4.0648582880157855 0 0 0
2 14 5 0.10745 39.45647339601068 3.410488724328967 3.433284259420225 0 0 0
649 14 5 0.10745 37.36915057380382 4.740419476597846 3.270415236212511 0 0 0
353 14 8 0.23105 39.89283095482419 0.5846107226573195 5.699906746627264 0 0 0
643 14 3 -0.1565 36.477653721160976 3.866775035794987 5.039153543192136 0 0 0
646 14 5 0.10745 35.59172540108218 4.494358662688754 4.981287836029774 0 0 0
645 14 3 0.1716 36.60025115003084 2.90152137237408 6.0596520748747285 0 0 0
650 14 8 0.23105 35.61847568545665 1.96917487524369 7.640925934372122 0 0 0
308 45 1 0.6797 32.417567717273606 9.325377737365724 1.7090834284738257 0 0 1
651 56 18 -0.1036 36.61539981842809 0.5990611698049344 2.9245273710246424 0 0 0
309 45 4 -0.5760999999999999 31.718386021909605 10.306794096601209 1.8826465571127464 0 0 1
686 16 3 0.1716 31.92828459126553 0.5131621266998996 12.44022985758991 0 0 0
515 56 3 -0.1956 33.934547229916774 3.634813029470788 0.8083575995304461 0 0 0
319 46 4 -0.5760999999999999 40.82668497743423 14.730972742816657 0.6668579933964687 0 0 1
324 15 3 -0.1565 37.053330852411904 14.42403127801755 0.869187188045642 0 0 0
327 15 5 0.10745 37.34965321593572 13.850691177066645 1.745057358483411 0 0 0
329 15 8 0.23105 38.58422701091219 15.853976361144808 2.4473293658706186 0 0 0
666 1 3 -0.23 38.54398622108353 0.06561298853608241 11.454023524752719 -1 0 0
662 43 1 0.6797 28.479736312297565 0.33117128496369125 10.06247744411027 0 0 0
627 13 3 0.1716 28.530959647112397 0.39990714405963756 6.370834101755019 0 0 0
320 47 1 0.6797 31.319290103436874 19.283543846957546 1.2103434641026178 0 0 0
321 47 4 -0.5760999999999999 30.48641320967659 19.11812314266342 0.33691629970695214 0 0 0
322 47 18 -0.1036 31.60933968814451 18.289498412523574 2.0783995377246764 0 0 0
365 43 4 -0.5760999999999999 34.39171322946934 0.08513078936402438 8.436245744400425 0 0 0
326 15 3 0.1716 37.333156696722426 15.804228203097166 0.8017475825236952 0 0 0
328 15 7 -0.4621 38.01145188808432 16.42817009553579 1.8377407936272097 0 0 0
331 15 8 0.23105 38.28222546673263 17.398344063751136 1.7300879306216992 0 0 0
539 22 8 0.23105 29.765801159604276 7.610146280738747 0.17975254651857184 0 0 1
838 56 3 -0.1956 35.281143227027165 2.028529085945567 2.0865124060175453 0 0 0
587 23 5 0.10745 37.519196109751654 20.62565095021577 2.2003626850882405 0 0 0
583 23 3 -0.23 36.87311854807176 20.77758427836335 1.3417327511036057 0 0 0
323 23 5 0.10745 35.905966518441154 18.856594619033412 1.5434234490364815 0 0 0
332 42 3 0.014 28.098542720834736 5.606473984441612 11.588697856928322 0 0 0
333 42 3 -0.1956 26.821385111903485 5.026775591231696 11.780809734366017 0 0 0
341 42 3 -0.1956 26.27586232996375 5.507336104382844 9.432771974357394 0 0 0
342 42 3 0.014 25.916337398504396 4.98044007367434 10.699014422130638 0 0 0
343 42 1 0.6797 25.34103905052361 5.517399188562404 8.262716678742665 0 0 0
346 42 5 0.1816 24.93973531074007 4.542511055188063 10.879744829166283 0 0 0
347 42 18 -0.1036 24.425598445410788 5.231285628982585 8.417755682693448 0 0 0
377 17 8 0.23105 24.712209208354285 7.009553142485949 14.082518493402697 0 0 0
383 17 8 0.23105 23.32457266122898 6.903576672596603 13.050012114210089 0 0 0
384 17 7 -0.4621 24.226434649170876 7.319985068473291 13.250419325065948 0 0 0
387 17 5 0.10745 23.31739107717859 7.7508394251334245 10.782534517365386 0 0 0
659 43 5 0.1816 29.042122023046364 2.944953198888521 9.14154092454127 0 0 0
339 42 3 -0.1956 28.47101515758855 6.127055527749094 10.334020269096674 0 0 0
340 42 3 0.014 27.558068373643756 6.069743560960561 9.258197160592431 0 0 0
344 42 4 -0.5760999999999999 25.70299285064815 5.8651806466948715 7.152326666783894 0 0 0
345 42 5 0.1816 27.8291192577519 6.461352607029348 8.284346011384695 0 0 0
348 43 3 0.014 32.21178894759388 1.8658262358537971 8.512101758452516 0 0 0