units            real
atom_style       full
dimension        3
newton           off
boundary         p p p
echo             none
Reading data file ...
  orthogonal box = (0 0 0) to (90 90 90)
  2 by 2 by 2 MPI processor grid
  reading atoms ...
  18 atoms
  scanning bonds ...
  3 = max bonds/atom
  scanning angles ...
  9 = max angles/atom
  scanning dihedrals ...
  20 = max dihedrals/atom
  scanning impropers ...
  11 = max impropers/atom
  orthogonal box = (0 0 0) to (90 90 90)
  2 by 2 by 2 MPI processor grid
  reading bonds ...
  18 bonds
  reading angles ...
  27 angles
  reading dihedrals ...
  45 dihedrals
  reading impropers ...
  18 impropers
Finding 1-2 1-3 1-4 neighbors ...
  special bond factors lj:    0        0        0       
  special bond factors coul:  0        0        0       
     3 = max # of 1-2 neighbors
     6 = max # of 1-3 neighbors
    12 = max # of 1-4 neighbors
    14 = max # of special neighbors
  special bonds CPU = 0.000 seconds
  read_data CPU = 0.005 seconds
Displacing atoms ...
WARNING: Ignoring 'compress yes' for molecular system (src/delete_atoms.cpp:141)
Deleted 18 atoms, new total = 0
Changing box ...
  orthogonal box = (0 0 0) to (41.7743 90 90)
  orthogonal box = (0 0 0) to (41.7743 41.7743 90)
  orthogonal box = (0 0 0) to (41.7743 41.7743 52.632319)
Lattice spacing in x,y,z = 11.3 11.3 11.3
Read molecule template MPDmol:
this is a moleule template for: mpd monomer
  1 molecules
  0 fragments
  16 atoms with max type 8
  16 bonds with max type 9
  24 angles with max type 25
  38 dihedrals with max type 9
  21 impropers with max type 9
Read molecule template TMCmol:
this is a molecule template for: whole tmc molecule
  1 molecules
  0 fragments
  18 atoms with max type 18
  18 bonds with max type 18
  27 angles with max type 24
  45 dihedrals with max type 31
  18 impropers with max type 5
Created 960 atoms
  using lattice units in orthogonal box = (0 0 0) to (41.7743 41.7743 52.632319)
  create_atoms CPU = 0.002 seconds
960 atoms in group MPDs
Created 720 atoms
  using lattice units in orthogonal box = (0 0 0) to (41.7743 41.7743 52.632319)
  create_atoms CPU = 0.001 seconds
720 atoms in group TMCs
Number of atoms in TMCs group: 720
System init for delete_atoms ...
PPPM initialization ...
  using 12-bit tables for long-range coulomb (src/kspace.cpp:342)
  G vector (1/distance) = 0.23974924
  grid = 15 15 18
  stencil order = 5
  estimated absolute RMS force accuracy = 0.038129187
  estimated relative force accuracy = 0.00011482492
  using double precision KISS FFT
  3d grid and FFT values/proc = 2366 675
Generated 153 of 153 mixed pair_coeff terms from sixthpower mixing rule
Neighbor list info ...
  update: every = 1 steps, delay = 0 steps, check = yes
  max neighbors/atom: 2000, page size: 100000
  master list distance cutoff = 11
  ghost atom cutoff = 11
  binsize = 5.5, bins = 8 8 10
  2 neighbor lists, perpetual/occasional/extra = 1 1 0
  (1) command delete_atoms, occasional
      attributes: full, newton off
      pair build: full/bin
      stencil: full/bin/3d
      bin: standard
  (2) pair lj/charmm/coul/long, perpetual
      attributes: half, newton off
      pair build: half/bin/newtoff
      stencil: full/bin/3d
      bin: standard
WARNING: Ignoring 'compress yes' for molecular system (src/delete_atoms.cpp:141)
Deleted 144 atoms, new total = 1536
Deleted 144 bonds, new total = 1536
Deleted 216 angles, new total = 2304
Deleted 360 dihedrals, new total = 3720
Deleted 144 impropers, new total = 1836

CITE-CITE-CITE-CITE-CITE-CITE-CITE-CITE-CITE-CITE-CITE-CITE-CITE

Your simulation uses code contributions which should be cited:

- Type Label Framework: https://doi.org/10.1021/acs.jpcb.3c08419

@Article{Gissinger24,
 author = {Jacob R. Gissinger, Ilia Nikiforov, Yaser Afshar, Brendon Waters, Moon-ki Choi, Daniel S. Karls, Alexander Stukowski, Wonpil Im, Hendrik Heinz, Axel Kohlmeyer, and Ellad B. Tadmor},
 title = {Type Label Framework for Bonded Force Fields in LAMMPS},
 journal = {J. Phys. Chem. B},
 year =    2024,
 volume =  128,
 number =  13,
 pages =   {3282–-3297}
}

CITE-CITE-CITE-CITE-CITE-CITE-CITE-CITE-CITE-CITE-CITE-CITE-CITE

PPPM initialization ...
  using 12-bit tables for long-range coulomb (src/kspace.cpp:342)
  G vector (1/distance) = 0.2397483
  grid = 15 15 18
  stencil order = 5
  estimated absolute RMS force accuracy = 0.034608736
  estimated relative force accuracy = 0.00010422318
  using double precision KISS FFT
  3d grid and FFT values/proc = 2366 675
Generated 153 of 153 mixed pair_coeff terms from sixthpower mixing rule
Neighbor list info ...
  update: every = 1 steps, delay = 0 steps, check = yes
  max neighbors/atom: 2000, page size: 100000
  master list distance cutoff = 11
  ghost atom cutoff = 11
  binsize = 5.5, bins = 8 8 10
  1 neighbor lists, perpetual/occasional/extra = 1 0 0
  (1) pair lj/charmm/coul/long, perpetual
      attributes: half, newton off
      pair build: half/bin/newtoff
      stencil: full/bin/3d
      bin: standard
Per MPI rank memory allocation (min/avg/max) = 19.69 | 19.79 | 20.35 Mbytes
   Step          Temp          E_pair         E_mol          TotEng         Press     
         0   0              4511543.1      10646.578      4522189.7      13461423     
Loop time of 5.02613e-06 on 8 procs for 0 steps with 1536 atoms

104.5% CPU use with 8 MPI tasks x no OpenMP threads

MPI task timing breakdown:
Section |  min time  |  avg time  |  max time  |%varavg| %total
---------------------------------------------------------------
Pair    | 0          | 0          | 0          |   0.0 |  0.00
Bond    | 0          | 0          | 0          |   0.0 |  0.00
Kspace  | 0          | 0          | 0          |   0.0 |  0.00
Neigh   | 0          | 0          | 0          |   0.0 |  0.00
Comm    | 0          | 0          | 0          |   0.0 |  0.00
Output  | 0          | 0          | 0          |   0.0 |  0.00
Modify  | 0          | 0          | 0          |   0.0 |  0.00
Other   |            | 5.026e-06  |            |       |100.00

Nlocal:            192 ave         310 max         136 min
Histogram: 1 3 1 1 1 0 0 0 0 1
Nghost:        1251.88 ave        1322 max        1203 min
Histogram: 3 1 1 0 0 0 0 0 2 1
Neighs:        14706.6 ave       26400 max        9747 min
Histogram: 1 3 1 2 0 0 0 0 0 1

Total # of neighbors = 117653
Ave neighs/atom = 76.597005
Ave special neighs/atom = 8.640625
Neighbor list builds = 0
Dangerous builds = 0
Created 144 atoms
  using lattice units in orthogonal box = (0 0 0) to (41.7743 41.7743 52.632319)
  create_atoms CPU = 0.001 seconds
720 atoms in group TMCs
Number of atoms in TMCs group: 720
System init for delete_atoms ...
PPPM initialization ...
  using 12-bit tables for long-range coulomb (src/kspace.cpp:342)
  G vector (1/distance) = 0.23974924
  grid = 15 15 18
  stencil order = 5
  estimated absolute RMS force accuracy = 0.038129187
  estimated relative force accuracy = 0.00011482492
  using double precision KISS FFT
  3d grid and FFT values/proc = 2366 675
Generated 153 of 153 mixed pair_coeff terms from sixthpower mixing rule
Neighbor list info ...
  update: every = 1 steps, delay = 0 steps, check = yes
  max neighbors/atom: 2000, page size: 100000
  master list distance cutoff = 11
  ghost atom cutoff = 11
  binsize = 5.5, bins = 8 8 10
  2 neighbor lists, perpetual/occasional/extra = 1 1 0
  (1) command delete_atoms, occasional
      attributes: full, newton off
      pair build: full/bin
      stencil: full/bin/3d
      bin: standard
  (2) pair lj/charmm/coul/long, perpetual
      attributes: half, newton off
      pair build: half/bin/newtoff
      stencil: full/bin/3d
      bin: standard
WARNING: Ignoring 'compress yes' for molecular system (src/delete_atoms.cpp:141)
Deleted 54 atoms, new total = 1626
Deleted 54 bonds, new total = 1626
Deleted 81 angles, new total = 2439
Deleted 135 dihedrals, new total = 3945
Deleted 54 impropers, new total = 1926
PPPM initialization ...
  using 12-bit tables for long-range coulomb (src/kspace.cpp:342)
  G vector (1/distance) = 0.23974903
  grid = 15 15 18
  stencil order = 5
  estimated absolute RMS force accuracy = 0.036837184
  estimated relative force accuracy = 0.00011093409
  using double precision KISS FFT
  3d grid and FFT values/proc = 2366 675
Generated 153 of 153 mixed pair_coeff terms from sixthpower mixing rule
Neighbor list info ...
  update: every = 1 steps, delay = 0 steps, check = yes
  max neighbors/atom: 2000, page size: 100000
  master list distance cutoff = 11
  ghost atom cutoff = 11
  binsize = 5.5, bins = 8 8 10
  1 neighbor lists, perpetual/occasional/extra = 1 0 0
  (1) pair lj/charmm/coul/long, perpetual
      attributes: half, newton off
      pair build: half/bin/newtoff
      stencil: full/bin/3d
      bin: standard
Per MPI rank memory allocation (min/avg/max) = 20.96 | 21.11 | 21.62 Mbytes
   Step          Temp          E_pair         E_mol          TotEng         Press     
         0   0              4515063.4      12191.396      4527254.8      13470387     
Loop time of 4.094e-06 on 8 procs for 0 steps with 1626 atoms

103.8% CPU use with 8 MPI tasks x no OpenMP threads

MPI task timing breakdown:
Section |  min time  |  avg time  |  max time  |%varavg| %total
---------------------------------------------------------------
Pair    | 0          | 0          | 0          |   0.0 |  0.00
Bond    | 0          | 0          | 0          |   0.0 |  0.00
Kspace  | 0          | 0          | 0          |   0.0 |  0.00
Neigh   | 0          | 0          | 0          |   0.0 |  0.00
Comm    | 0          | 0          | 0          |   0.0 |  0.00
Output  | 0          | 0          | 0          |   0.0 |  0.00
Modify  | 0          | 0          | 0          |   0.0 |  0.00
Other   |            | 4.094e-06  |            |       |100.00

Nlocal:         203.25 ave         324 max         137 min
Histogram: 1 2 2 0 2 0 0 0 0 1
Nghost:        1331.38 ave        1395 max        1274 min
Histogram: 1 0 3 0 1 0 0 0 2 1
Neighs:        16282.2 ave       28850 max       10314 min
Histogram: 1 3 1 1 1 0 0 0 0 1

Total # of neighbors = 130258
Ave neighs/atom = 80.109471
Ave special neighs/atom = 8.6420664
Neighbor list builds = 0
Dangerous builds = 0
Created 54 atoms
  using lattice units in orthogonal box = (0 0 0) to (41.7743 41.7743 52.632319)
  create_atoms CPU = 0.000 seconds
720 atoms in group TMCs
Number of atoms in TMCs group: 720
System init for delete_atoms ...
PPPM initialization ...
  using 12-bit tables for long-range coulomb (src/kspace.cpp:342)
  G vector (1/distance) = 0.23974924
  grid = 15 15 18
  stencil order = 5
  estimated absolute RMS force accuracy = 0.038129187
  estimated relative force accuracy = 0.00011482492
  using double precision KISS FFT
  3d grid and FFT values/proc = 2366 675
Generated 153 of 153 mixed pair_coeff terms from sixthpower mixing rule
Neighbor list info ...
  update: every = 1 steps, delay = 0 steps, check = yes
  max neighbors/atom: 2000, page size: 100000
  master list distance cutoff = 11
  ghost atom cutoff = 11
  binsize = 5.5, bins = 8 8 10
  2 neighbor lists, perpetual/occasional/extra = 1 1 0
  (1) command delete_atoms, occasional
      attributes: full, newton off
      pair build: full/bin
      stencil: full/bin/3d
      bin: standard
  (2) pair lj/charmm/coul/long, perpetual
      attributes: half, newton off
      pair build: half/bin/newtoff
      stencil: full/bin/3d
      bin: standard
WARNING: Ignoring 'compress yes' for molecular system (src/delete_atoms.cpp:141)
Deleted 36 atoms, new total = 1644
Deleted 36 bonds, new total = 1644
Deleted 54 angles, new total = 2466
Deleted 90 dihedrals, new total = 3990
Deleted 36 impropers, new total = 1944
PPPM initialization ...
  using 12-bit tables for long-range coulomb (src/kspace.cpp:342)
  G vector (1/distance) = 0.23974912
  grid = 15 15 18
  stencil order = 5
  estimated absolute RMS force accuracy = 0.037271441
  estimated relative force accuracy = 0.00011224184
  using double precision KISS FFT
  3d grid and FFT values/proc = 2366 675
Generated 153 of 153 mixed pair_coeff terms from sixthpower mixing rule
Neighbor list info ...
  update: every = 1 steps, delay = 0 steps, check = yes
  max neighbors/atom: 2000, page size: 100000
  master list distance cutoff = 11
  ghost atom cutoff = 11
  binsize = 5.5, bins = 8 8 10
  1 neighbor lists, perpetual/occasional/extra = 1 0 0
  (1) pair lj/charmm/coul/long, perpetual
      attributes: half, newton off
      pair build: half/bin/newtoff
      stencil: full/bin/3d
      bin: standard
Per MPI rank memory allocation (min/avg/max) = 20.96 | 21.11 | 21.63 Mbytes
   Step          Temp          E_pair         E_mol          TotEng         Press     
         0   0              4515068.7      12500.36       4527569.1      13470080     
Loop time of 1.1828e-05 on 8 procs for 0 steps with 1644 atoms

96.2% CPU use with 8 MPI tasks x no OpenMP threads

MPI task timing breakdown:
Section |  min time  |  avg time  |  max time  |%varavg| %total
---------------------------------------------------------------
Pair    | 0          | 0          | 0          |   0.0 |  0.00
Bond    | 0          | 0          | 0          |   0.0 |  0.00
Kspace  | 0          | 0          | 0          |   0.0 |  0.00
Neigh   | 0          | 0          | 0          |   0.0 |  0.00
Comm    | 0          | 0          | 0          |   0.0 |  0.00
Output  | 0          | 0          | 0          |   0.0 |  0.00
Modify  | 0          | 0          | 0          |   0.0 |  0.00
Other   |            | 1.183e-05  |            |       |100.00

Nlocal:          205.5 ave         324 max         155 min
Histogram: 2 3 0 1 1 0 0 0 0 1
Nghost:        1347.62 ave        1410 max        1296 min
Histogram: 2 1 1 0 1 0 0 0 2 1
Neighs:        16497.9 ave       28850 max       11587 min
Histogram: 2 2 1 2 0 0 0 0 0 1

Total # of neighbors = 131983
Ave neighs/atom = 80.28163
Ave special neighs/atom = 8.6423358
Neighbor list builds = 0
Dangerous builds = 0
Created 36 atoms
  using lattice units in orthogonal box = (0 0 0) to (41.7743 41.7743 52.632319)
  create_atoms CPU = 0.000 seconds
720 atoms in group TMCs
Number of atoms in TMCs group: 720
System init for delete_atoms ...
PPPM initialization ...
  using 12-bit tables for long-range coulomb (src/kspace.cpp:342)
  G vector (1/distance) = 0.23974924
  grid = 15 15 18
  stencil order = 5
  estimated absolute RMS force accuracy = 0.038129187
  estimated relative force accuracy = 0.00011482492
  using double precision KISS FFT
  3d grid and FFT values/proc = 2366 675
Generated 153 of 153 mixed pair_coeff terms from sixthpower mixing rule
Neighbor list info ...
  update: every = 1 steps, delay = 0 steps, check = yes
  max neighbors/atom: 2000, page size: 100000
  master list distance cutoff = 11
  ghost atom cutoff = 11
  binsize = 5.5, bins = 8 8 10
  2 neighbor lists, perpetual/occasional/extra = 1 1 0
  (1) command delete_atoms, occasional
      attributes: full, newton off
      pair build: full/bin
      stencil: full/bin/3d
      bin: standard
  (2) pair lj/charmm/coul/long, perpetual
      attributes: half, newton off
      pair build: half/bin/newtoff
      stencil: full/bin/3d
      bin: standard
WARNING: Ignoring 'compress yes' for molecular system (src/delete_atoms.cpp:141)
Deleted 36 atoms, new total = 1644
Deleted 36 bonds, new total = 1644
Deleted 54 angles, new total = 2466
Deleted 90 dihedrals, new total = 3990
Deleted 36 impropers, new total = 1944
PPPM initialization ...
  using 12-bit tables for long-range coulomb (src/kspace.cpp:342)
  G vector (1/distance) = 0.23974912
  grid = 15 15 18
  stencil order = 5
  estimated absolute RMS force accuracy = 0.037271441
  estimated relative force accuracy = 0.00011224184
  using double precision KISS FFT
  3d grid and FFT values/proc = 2366 675
Generated 153 of 153 mixed pair_coeff terms from sixthpower mixing rule
Neighbor list info ...
  update: every = 1 steps, delay = 0 steps, check = yes
  max neighbors/atom: 2000, page size: 100000
  master list distance cutoff = 11
  ghost atom cutoff = 11
  binsize = 5.5, bins = 8 8 10
  1 neighbor lists, perpetual/occasional/extra = 1 0 0
  (1) pair lj/charmm/coul/long, perpetual
      attributes: half, newton off
      pair build: half/bin/newtoff
      stencil: full/bin/3d
      bin: standard
Per MPI rank memory allocation (min/avg/max) = 20.96 | 21.13 | 21.63 Mbytes
   Step          Temp          E_pair         E_mol          TotEng         Press     
         0   0              4513524.9      12500.36       4526025.3      13465429     
Loop time of 3.69263e-06 on 8 procs for 0 steps with 1644 atoms

101.6% CPU use with 8 MPI tasks x no OpenMP threads

MPI task timing breakdown:
Section |  min time  |  avg time  |  max time  |%varavg| %total
---------------------------------------------------------------
Pair    | 0          | 0          | 0          |   0.0 |  0.00
Bond    | 0          | 0          | 0          |   0.0 |  0.00
Kspace  | 0          | 0          | 0          |   0.0 |  0.00
Neigh   | 0          | 0          | 0          |   0.0 |  0.00
Comm    | 0          | 0          | 0          |   0.0 |  0.00
Output  | 0          | 0          | 0          |   0.0 |  0.00
Modify  | 0          | 0          | 0          |   0.0 |  0.00
Other   |            | 3.693e-06  |            |       |100.00

Nlocal:          205.5 ave         318 max         155 min
Histogram: 2 2 1 0 2 0 0 0 0 1
Nghost:        1349.12 ave        1418 max        1293 min
Histogram: 1 1 2 0 1 0 0 1 1 1
Neighs:        16393.8 ave       27911 max       11606 min
Histogram: 2 2 2 0 1 0 0 0 0 1

Total # of neighbors = 131150
Ave neighs/atom = 79.774939
Ave special neighs/atom = 8.6423358
Neighbor list builds = 0
Dangerous builds = 0
Created 36 atoms
  using lattice units in orthogonal box = (0 0 0) to (41.7743 41.7743 52.632319)
  create_atoms CPU = 0.000 seconds
720 atoms in group TMCs
Number of atoms in TMCs group: 720
System init for delete_atoms ...
PPPM initialization ...
  using 12-bit tables for long-range coulomb (src/kspace.cpp:342)
  G vector (1/distance) = 0.23974924
  grid = 15 15 18
  stencil order = 5
  estimated absolute RMS force accuracy = 0.038129187
  estimated relative force accuracy = 0.00011482492
  using double precision KISS FFT
  3d grid and FFT values/proc = 2366 675
Generated 153 of 153 mixed pair_coeff terms from sixthpower mixing rule
Neighbor list info ...
  update: every = 1 steps, delay = 0 steps, check = yes
  max neighbors/atom: 2000, page size: 100000
  master list distance cutoff = 11
  ghost atom cutoff = 11
  binsize = 5.5, bins = 8 8 10
  2 neighbor lists, perpetual/occasional/extra = 1 1 0
  (1) command delete_atoms, occasional
      attributes: full, newton off
      pair build: full/bin
      stencil: full/bin/3d
      bin: standard
  (2) pair lj/charmm/coul/long, perpetual
      attributes: half, newton off
      pair build: half/bin/newtoff
      stencil: full/bin/3d
      bin: standard
WARNING: Ignoring 'compress yes' for molecular system (src/delete_atoms.cpp:141)
Deleted 54 atoms, new total = 1626
Deleted 54 bonds, new total = 1626
Deleted 81 angles, new total = 2439
Deleted 135 dihedrals, new total = 3945
Deleted 54 impropers, new total = 1926
PPPM initialization ...
  using 12-bit tables for long-range coulomb (src/kspace.cpp:342)
  G vector (1/distance) = 0.23974903
  grid = 15 15 18
  stencil order = 5
  estimated absolute RMS force accuracy = 0.036837184
  estimated relative force accuracy = 0.00011093409
  using double precision KISS FFT
  3d grid and FFT values/proc = 2366 675
Generated 153 of 153 mixed pair_coeff terms from sixthpower mixing rule
Neighbor list info ...
  update: every = 1 steps, delay = 0 steps, check = yes
  max neighbors/atom: 2000, page size: 100000
  master list distance cutoff = 11
  ghost atom cutoff = 11
  binsize = 5.5, bins = 8 8 10
  1 neighbor lists, perpetual/occasional/extra = 1 0 0
  (1) pair lj/charmm/coul/long, perpetual
      attributes: half, newton off
      pair build: half/bin/newtoff
      stencil: full/bin/3d
      bin: standard
Per MPI rank memory allocation (min/avg/max) = 20.96 | 21.13 | 21.62 Mbytes
   Step          Temp          E_pair         E_mol          TotEng         Press     
         0   0              4513537.1      12191.396      4525728.5      13465791     
Loop time of 2.52088e-06 on 8 procs for 0 steps with 1626 atoms

99.2% CPU use with 8 MPI tasks x no OpenMP threads

MPI task timing breakdown:
Section |  min time  |  avg time  |  max time  |%varavg| %total
---------------------------------------------------------------
Pair    | 0          | 0          | 0          |   0.0 |  0.00
Bond    | 0          | 0          | 0          |   0.0 |  0.00
Kspace  | 0          | 0          | 0          |   0.0 |  0.00
Neigh   | 0          | 0          | 0          |   0.0 |  0.00
Comm    | 0          | 0          | 0          |   0.0 |  0.00
Output  | 0          | 0          | 0          |   0.0 |  0.00
Modify  | 0          | 0          | 0          |   0.0 |  0.00
Other   |            | 2.521e-06  |            |       |100.00

Nlocal:         203.25 ave         318 max         155 min
Histogram: 3 1 1 1 1 0 0 0 0 1
Nghost:        1328.62 ave        1398 max        1265 min
Histogram: 1 1 1 1 1 0 1 0 0 2
Neighs:        16171.6 ave       27883 max       11596 min
Histogram: 2 2 2 0 1 0 0 0 0 1

Total # of neighbors = 129373
Ave neighs/atom = 79.565191
Ave special neighs/atom = 8.6420664
Neighbor list builds = 0
Dangerous builds = 0
Created 54 atoms
  using lattice units in orthogonal box = (0 0 0) to (41.7743 41.7743 52.632319)
  create_atoms CPU = 0.001 seconds
720 atoms in group TMCs
Number of atoms in TMCs group: 720
System init for delete_atoms ...
PPPM initialization ...
  using 12-bit tables for long-range coulomb (src/kspace.cpp:342)
  G vector (1/distance) = 0.23974924
  grid = 15 15 18
  stencil order = 5
  estimated absolute RMS force accuracy = 0.038129187
  estimated relative force accuracy = 0.00011482492
  using double precision KISS FFT
  3d grid and FFT values/proc = 2366 675
Generated 153 of 153 mixed pair_coeff terms from sixthpower mixing rule
Neighbor list info ...
  update: every = 1 steps, delay = 0 steps, check = yes
  max neighbors/atom: 2000, page size: 100000
  master list distance cutoff = 11
  ghost atom cutoff = 11
  binsize = 5.5, bins = 8 8 10
  2 neighbor lists, perpetual/occasional/extra = 1 1 0
  (1) command delete_atoms, occasional
      attributes: full, newton off
      pair build: full/bin
      stencil: full/bin/3d
      bin: standard
  (2) pair lj/charmm/coul/long, perpetual
      attributes: half, newton off
      pair build: half/bin/newtoff
      stencil: full/bin/3d
      bin: standard
WARNING: Ignoring 'compress yes' for molecular system (src/delete_atoms.cpp:141)
Deleted 18 atoms, new total = 1662
Deleted 18 bonds, new total = 1662
Deleted 27 angles, new total = 2493
Deleted 45 dihedrals, new total = 4035
Deleted 18 impropers, new total = 1962
PPPM initialization ...
  using 12-bit tables for long-range coulomb (src/kspace.cpp:342)
  G vector (1/distance) = 0.23974918
  grid = 15 15 18
  stencil order = 5
  estimated absolute RMS force accuracy = 0.037702083
  estimated relative force accuracy = 0.0001135387
  using double precision KISS FFT
  3d grid and FFT values/proc = 2366 675
Generated 153 of 153 mixed pair_coeff terms from sixthpower mixing rule
Neighbor list info ...
  update: every = 1 steps, delay = 0 steps, check = yes
  max neighbors/atom: 2000, page size: 100000
  master list distance cutoff = 11
  ghost atom cutoff = 11
  binsize = 5.5, bins = 8 8 10
  1 neighbor lists, perpetual/occasional/extra = 1 0 0
  (1) pair lj/charmm/coul/long, perpetual
      attributes: half, newton off
      pair build: half/bin/newtoff
      stencil: full/bin/3d
      bin: standard
Per MPI rank memory allocation (min/avg/max) = 20.96 | 21.13 | 21.63 Mbytes
   Step          Temp          E_pair         E_mol          TotEng         Press     
         0   0              4513517.7      12809.324      4526327        13465080     
Loop time of 2.82288e-06 on 8 procs for 0 steps with 1662 atoms

106.3% CPU use with 8 MPI tasks x no OpenMP threads

MPI task timing breakdown:
Section |  min time  |  avg time  |  max time  |%varavg| %total
---------------------------------------------------------------
Pair    | 0          | 0          | 0          |   0.0 |  0.00
Bond    | 0          | 0          | 0          |   0.0 |  0.00
Kspace  | 0          | 0          | 0          |   0.0 |  0.00
Neigh   | 0          | 0          | 0          |   0.0 |  0.00
Comm    | 0          | 0          | 0          |   0.0 |  0.00
Output  | 0          | 0          | 0          |   0.0 |  0.00
Modify  | 0          | 0          | 0          |   0.0 |  0.00
Other   |            | 2.823e-06  |            |       |100.00

Nlocal:         207.75 ave         318 max         169 min
Histogram: 3 2 1 0 1 0 0 0 0 1
Nghost:        1360.62 ave        1426 max        1304 min
Histogram: 2 0 1 1 0 1 0 1 1 1
Neighs:        16803.2 ave       27952 max       13237 min
Histogram: 3 3 0 0 1 0 0 0 0 1

Total # of neighbors = 134426
Ave neighs/atom = 80.88207
Ave special neighs/atom = 8.6425993
Neighbor list builds = 0
Dangerous builds = 0
Created 18 atoms
  using lattice units in orthogonal box = (0 0 0) to (41.7743 41.7743 52.632319)
  create_atoms CPU = 0.000 seconds
720 atoms in group TMCs
Number of atoms in TMCs group: 720
System init for delete_atoms ...
PPPM initialization ...
  using 12-bit tables for long-range coulomb (src/kspace.cpp:342)
  G vector (1/distance) = 0.23974924
  grid = 15 15 18
  stencil order = 5
  estimated absolute RMS force accuracy = 0.038129187
  estimated relative force accuracy = 0.00011482492
  using double precision KISS FFT
  3d grid and FFT values/proc = 2366 675
Generated 153 of 153 mixed pair_coeff terms from sixthpower mixing rule
Neighbor list info ...
  update: every = 1 steps, delay = 0 steps, check = yes
  max neighbors/atom: 2000, page size: 100000
  master list distance cutoff = 11
  ghost atom cutoff = 11
  binsize = 5.5, bins = 8 8 10
  2 neighbor lists, perpetual/occasional/extra = 1 1 0
  (1) command delete_atoms, occasional
      attributes: full, newton off
      pair build: full/bin
      stencil: full/bin/3d
      bin: standard
  (2) pair lj/charmm/coul/long, perpetual
      attributes: half, newton off
      pair build: half/bin/newtoff
      stencil: full/bin/3d
      bin: standard
WARNING: Ignoring 'compress yes' for molecular system (src/delete_atoms.cpp:141)
Deleted 0 atoms, new total = 1680
Deleted 0 bonds, new total = 1680
Deleted 0 angles, new total = 2520
Deleted 0 dihedrals, new total = 4080
Deleted 0 impropers, new total = 1980
PPPM initialization ...
  using 12-bit tables for long-range coulomb (src/kspace.cpp:342)
  G vector (1/distance) = 0.23974924
  grid = 15 15 18
  stencil order = 5
  estimated absolute RMS force accuracy = 0.038129187
  estimated relative force accuracy = 0.00011482492
  using double precision KISS FFT
  3d grid and FFT values/proc = 2366 675
Generated 153 of 153 mixed pair_coeff terms from sixthpower mixing rule
Neighbor list info ...
  update: every = 1 steps, delay = 0 steps, check = yes
  max neighbors/atom: 2000, page size: 100000
  master list distance cutoff = 11
  ghost atom cutoff = 11
  binsize = 5.5, bins = 8 8 10
  1 neighbor lists, perpetual/occasional/extra = 1 0 0
  (1) pair lj/charmm/coul/long, perpetual
      attributes: half, newton off
      pair build: half/bin/newtoff
      stencil: full/bin/3d
      bin: standard
Per MPI rank memory allocation (min/avg/max) = 20.96 | 21.13 | 21.63 Mbytes
   Step          Temp          E_pair         E_mol          TotEng         Press     
         0   0              4514061.4      13118.287      4527179.7      13466412     
Loop time of 2.26563e-06 on 8 procs for 0 steps with 1680 atoms

93.8% CPU use with 8 MPI tasks x no OpenMP threads

MPI task timing breakdown:
Section |  min time  |  avg time  |  max time  |%varavg| %total
---------------------------------------------------------------
Pair    | 0          | 0          | 0          |   0.0 |  0.00
Bond    | 0          | 0          | 0          |   0.0 |  0.00
Kspace  | 0          | 0          | 0          |   0.0 |  0.00
Neigh   | 0          | 0          | 0          |   0.0 |  0.00
Comm    | 0          | 0          | 0          |   0.0 |  0.00
Output  | 0          | 0          | 0          |   0.0 |  0.00
Modify  | 0          | 0          | 0          |   0.0 |  0.00
Other   |            | 2.266e-06  |            |       |100.00

Nlocal:            210 ave         318 max         169 min
Histogram: 3 1 1 1 1 0 0 0 0 1
Nghost:        1378.38 ave        1448 max        1322 min
Histogram: 2 0 1 1 0 1 1 1 0 1
Neighs:        17283.8 ave       27952 max       13237 min
Histogram: 3 2 1 0 1 0 0 0 0 1

Total # of neighbors = 138270
Ave neighs/atom = 82.303571
Ave special neighs/atom = 8.6428571
Neighbor list builds = 0
Dangerous builds = 0
Resetting atom IDs ...
PPPM initialization ...
  using 12-bit tables for long-range coulomb (src/kspace.cpp:342)
  G vector (1/distance) = 0.23974924
  grid = 15 15 18
  stencil order = 5
  estimated absolute RMS force accuracy = 0.038129187
  estimated relative force accuracy = 0.00011482492
  using double precision KISS FFT
  3d grid and FFT values/proc = 2366 675
Generated 153 of 153 mixed pair_coeff terms from sixthpower mixing rule
Finding 1-2 1-3 1-4 neighbors ...
  special bond factors lj:    0        0        0       
  special bond factors coul:  0        0        0       
     3 = max # of 1-2 neighbors
     6 = max # of 1-3 neighbors
    12 = max # of 1-4 neighbors
    14 = max # of special neighbors
  special bonds CPU = 0.001 seconds
PPPM initialization ...
  using 12-bit tables for long-range coulomb (src/kspace.cpp:342)
  G vector (1/distance) = 0.23974924
  grid = 15 15 18
  stencil order = 5
  estimated absolute RMS force accuracy = 0.038129187
  estimated relative force accuracy = 0.00011482492
  using double precision KISS FFT
  3d grid and FFT values/proc = 2366 675
Generated 153 of 153 mixed pair_coeff terms from sixthpower mixing rule
Per MPI rank memory allocation (min/avg/max) = 22.09 | 22.26 | 22.75 Mbytes
   Step          Temp          E_pair         E_mol          TotEng         Press     
         0   0              4514061.4      13118.287      4527179.7      13466412     
       788   0              991.52458      864.91688      1856.4415     -137.45294    
Loop time of 1.78902 on 8 procs for 788 steps with 1680 atoms

96.9% CPU use with 8 MPI tasks x no OpenMP threads

Minimization stats:
  Stopping criterion = energy tolerance
  Energy initial, next-to-last, final = 
       4527179.7089411   1856.45997961527   1856.44145881043
  Force two-norm initial, final = 99041292 13.678564
  Force max component initial, final = 67976636 1.9377543
  Final line search alpha, max atom move = 0.04947863 0.09587743
  Iterations, force evaluations = 788 1563

MPI task timing breakdown:
Section |  min time  |  avg time  |  max time  |%varavg| %total
---------------------------------------------------------------
Pair    | 0.38841    | 0.46924    | 0.69852    |  13.9 | 26.23
Bond    | 0.078965   | 0.099964   | 0.13221    |   5.1 |  5.59
Kspace  | 0.89304    | 1.1553     | 1.2406     |  10.2 | 64.58
Neigh   | 0.003179   | 0.0031904  | 0.0032021  |   0.0 |  0.18
Comm    | 0.035961   | 0.036513   | 0.037258   |   0.2 |  2.04
Output  | 0          | 0          | 0          |   0.0 |  0.00
Modify  | 0          | 0          | 0          |   0.0 |  0.00
Other   |            | 0.02483    |            |       |  1.39

Nlocal:            210 ave         310 max         165 min
Histogram: 3 1 0 2 1 0 0 0 0 1
Nghost:        1374.62 ave        1444 max        1316 min
Histogram: 2 0 1 1 0 1 1 1 0 1
Neighs:        17303.6 ave       27433 max       14034 min
Histogram: 5 0 1 0 1 0 0 0 0 1

Total # of neighbors = 138429
Ave neighs/atom = 82.398214
Ave special neighs/atom = 8.6428571
Neighbor list builds = 2
Dangerous builds = 0
PPPM initialization ...
  using 12-bit tables for long-range coulomb (src/kspace.cpp:342)
  G vector (1/distance) = 0.23974924
  grid = 15 15 18
  stencil order = 5
  estimated absolute RMS force accuracy = 0.038129187
  estimated relative force accuracy = 0.00011482492
  using double precision KISS FFT
  3d grid and FFT values/proc = 2366 675
Generated 153 of 153 mixed pair_coeff terms from sixthpower mixing rule
Per MPI rank memory allocation (min/avg/max) = 22.09 | 22.26 | 22.75 Mbytes
   Step          Temp          E_pair         E_mol          TotEng         Press     
       788   0              991.52458      864.91688      1856.4415     -137.45294    
      2401   0              101.7706       877.66569      979.43629     -120.53488    
Loop time of 4.51717 on 8 procs for 1613 steps with 1680 atoms

97.0% CPU use with 8 MPI tasks x no OpenMP threads

Minimization stats:
  Stopping criterion = linesearch alpha is zero
  Energy initial, next-to-last, final = 
      1856.44145881041   979.436288519006   979.436288519006
  Force two-norm initial, final = 13.678564 15.888334
  Force max component initial, final = 1.9377543 2.7147255
  Final line search alpha, max atom move = 3.2321759e-11 8.7744702e-11
  Iterations, force evaluations = 1613 3278

MPI task timing breakdown:
Section |  min time  |  avg time  |  max time  |%varavg| %total
---------------------------------------------------------------
Pair    | 0.81718    | 1.2563     | 2.0032     |  31.9 | 27.81
Bond    | 0.14121    | 0.20265    | 0.27411    |   8.5 |  4.49
Kspace  | 2.0339     | 2.8523     | 3.355      |  23.4 | 63.14
Neigh   | 0.058889   | 0.059447   | 0.059866   |   0.1 |  1.32
Comm    | 0.081309   | 0.082607   | 0.084077   |   0.3 |  1.83
Output  | 0.00078358 | 0.00091396 | 0.0010203  |   0.0 |  0.02
Modify  | 0          | 0          | 0          |   0.0 |  0.00
Other   |            | 0.06295    |            |       |  1.39

Nlocal:            210 ave         355 max          97 min
Histogram: 1 1 1 1 1 1 0 1 0 1
Nghost:         1458.5 ave        1553 max        1333 min
Histogram: 1 0 0 2 0 1 1 1 0 2
Neighs:        24470.8 ave       44663 max       11140 min
Histogram: 1 2 0 0 3 1 0 0 0 1

Total # of neighbors = 195766
Ave neighs/atom = 116.52738
Ave special neighs/atom = 8.6428571
Neighbor list builds = 45
Dangerous builds = 0
System init for write_data ...
PPPM initialization ...
  using 12-bit tables for long-range coulomb (src/kspace.cpp:342)
  G vector (1/distance) = 0.23974924
  grid = 15 15 18
  stencil order = 5
  estimated absolute RMS force accuracy = 0.038129187
  estimated relative force accuracy = 0.00011482492
  using double precision KISS FFT
  3d grid and FFT values/proc = 2366 675
Generated 153 of 153 mixed pair_coeff terms from sixthpower mixing rule
Read molecule template mol1:
this is a molecule template for: initial mpdtmc crosslink, pre-reacting
  1 molecules
  0 fragments
  20 atoms with max type 18
  18 bonds with max type 18
  24 angles with max type 25
  25 dihedrals with max type 31
  7 impropers with max type 9
Read molecule template mol2:
this is a molecule template for: initial mpdtmc crosslink, post-reacting
  1 molecules
  0 fragments
  20 atoms with max type 18
  17 bonds with max type 13
  24 angles with max type 14
  27 dihedrals with max type 21
  8 impropers with max type 7
120 atoms in group NUM_AMIDE
MAX_BONDS = 120
dynamic group bond_react_MASTER_group defined
dynamic group statted_grp_REACT defined
==================================Current bonds formed = 0 Minimum bonds desired = 111.6=======================================
==================================NVT PA POLYMERIZATION RUN: 300 C===============================

CITE-CITE-CITE-CITE-CITE-CITE-CITE-CITE-CITE-CITE-CITE-CITE-CITE

Your simulation uses code contributions which should be cited:

- fix bond/react: reacter.org doi:10.1016/j.polymer.2017.09.038, doi:10.1021/acs.macromol.0c02012, doi:10.1016/j.cpc.2024.109287

@Article{Gissinger17,
 author = {J. R. Gissinger and B. D. Jensen and K. E. Wise},
 title = {Modeling Chemical Reactions in Classical Molecular Dynamics Simulations},
 journal = {Polymer},
 year =    2017,
 volume =  128,
 pages =   {211--217}
}

@Article{Gissinger20,
 author = {J. R. Gissinger, B. D. Jensen, K. E. Wise},
 title = {{REACTER}: A Heuristic Method for Reactive Molecular Dynamics},
 journal = {Macromolecules},
 year =    2020,
 volume =  53,
 number =  22,
 pages =   {9953--9961}
}

@Article{Gissinger24,
 author = {J. R. Gissinger, B. D. Jensen, K. E. Wise},
 title = {Molecular Modeling of Reactive Systems with REACTER},
 journal = {Computer Physics Communications},
 year =    2024,
 volume =  304,
 number =  109287
}

CITE-CITE-CITE-CITE-CITE-CITE-CITE-CITE-CITE-CITE-CITE-CITE-CITE

PPPM initialization ...
  using 12-bit tables for long-range coulomb (src/kspace.cpp:342)
  G vector (1/distance) = 0.23974924
  grid = 15 15 18
  stencil order = 5
  estimated absolute RMS force accuracy = 0.038129187
  estimated relative force accuracy = 0.00011482492
  using double precision KISS FFT
  3d grid and FFT values/proc = 2366 675
Generated 153 of 153 mixed pair_coeff terms from sixthpower mixing rule
Neighbor list info ...
  update: every = 1 steps, delay = 0 steps, check = yes
  max neighbors/atom: 2000, page size: 100000
  master list distance cutoff = 11
  ghost atom cutoff = 11
  binsize = 5.5, bins = 8 8 10
  2 neighbor lists, perpetual/occasional/extra = 1 1 0
  (1) pair lj/charmm/coul/long, perpetual
      attributes: half, newton off
      pair build: half/bin/newtoff
      stencil: full/bin/3d
      bin: standard
  (2) fix bond/react, occasional, copy from (1)
      attributes: half, newton off
      pair build: copy
      stencil: none
      bin: none
Per MPI rank memory allocation (min/avg/max) = 21.4 | 21.62 | 22.09 Mbytes
   Step          Temp          Press         Density       f_PArxn[1]  
      2401   300            626.71912      0.30928377     0            
WARNING: System is not charge neutral, net charge = 1.3188 (src/kspace.cpp:327)
      2500   373.36146     -1632.2061      0.290169       29           
      2600   475.2651      -3988.2554      0.27369075     54           
      2700   552.0068      -1869.5186      0.26578119     66           
      2800   520.84218     -3086.6782      0.26512206     67           
      2900   437.73735      541.50983      0.26512206     67           
      3000   326.52464     -703.65873      0.26512206     67           
      3100   291.89236     -3699.2757      0.26446294     68           
      3200   275.02967     -732.03664      0.26446294     68           
      3300   273.66156     -3758.0111      0.26380381     69           
      3400   277.34064      10.167876      0.26380381     69           
      3401   277.00449      70.978544      0.26380381     69           
Loop time of 1.42608 on 8 procs for 1000 steps with 1542 atoms

Performance: 60.586 ns/day, 0.396 hours/ns, 701.223 timesteps/s, 1.081 Matom-step/s
96.8% CPU use with 8 MPI tasks x no OpenMP threads

MPI task timing breakdown:
Section |  min time  |  avg time  |  max time  |%varavg| %total
---------------------------------------------------------------
Pair    | 0.12404    | 0.25906    | 0.45469    |  18.8 | 18.17
Bond    | 0.028436   | 0.054814   | 0.083384   |   7.0 |  3.84
Kspace  | 0.48981    | 0.68208    | 0.81782    |  11.5 | 47.83
Neigh   | 0.098429   | 0.098598   | 0.098713   |   0.0 |  6.91
Comm    | 0.026994   | 0.027674   | 0.028157   |   0.3 |  1.94
Output  | 0.00068429 | 0.00074846 | 0.00088121 |   0.0 |  0.05
Modify  | 0.26828    | 0.29975    | 0.32506    |   3.1 | 21.02
Other   |            | 0.00336    |            |       |  0.24

Nlocal:         192.75 ave         314 max         107 min
Histogram: 1 1 1 2 0 1 1 0 0 1
Nghost:        1323.75 ave        1390 max        1210 min
Histogram: 1 0 0 1 1 0 0 3 0 2
Neighs:        19160.5 ave       33628 max        9398 min
Histogram: 1 1 1 2 1 1 0 0 0 1

Total # of neighbors = 153284
Ave neighs/atom = 99.405966
Ave special neighs/atom = 9.6848249
Neighbor list builds = 70
Dangerous builds = 0
PPPM initialization ...
  using 12-bit tables for long-range coulomb (src/kspace.cpp:342)
  G vector (1/distance) = 0.23974937
  grid = 15 15 18
  stencil order = 5
  estimated absolute RMS force accuracy = 0.039577764
  estimated relative force accuracy = 0.00011918726
  using double precision KISS FFT
  3d grid and FFT values/proc = 2366 675
Generated 153 of 153 mixed pair_coeff terms from sixthpower mixing rule
WARNING: Inconsistent image flags (src/domain.cpp:1051)
Per MPI rank memory allocation (min/avg/max) = 22.34 | 22.56 | 23.04 Mbytes
   Step          Temp          Press         Density       f_PArxn[1]  
      3401   301.81087      70.978557      0.26380381     69           
      3500   301.98467     -47.256089      0.26406719     69           
      3600   318.80804     -223.4833       0.2621959      69           
      3700   333.15746     -2916.4801      0.2841822      71           
      3800   342.54488     -22.731719      0.31715448     71           
      3900   320.06884      155.95465      0.32006109     71           
      4000   299.66388     -123.82947      0.32046966     71           
      4100   385.66844     -1509.7847      0.3843491      73           
      4200   395.95853     -13437.571      0.4452431      76           
      4300   543.03301     -2493.1435      0.58088132     79           
      4400   475.5352      -13273.725      0.58093055     82           
      4401   487.67348     -12056.189      0.58246934     82           
Loop time of 1.93656 on 8 procs for 1000 steps with 1516 atoms

Performance: 44.615 ns/day, 0.538 hours/ns, 516.379 timesteps/s, 782.831 katom-step/s
96.2% CPU use with 8 MPI tasks x no OpenMP threads

MPI task timing breakdown:
Section |  min time  |  avg time  |  max time  |%varavg| %total
---------------------------------------------------------------
Pair    | 0.23868    | 0.40983    | 0.7023     |  20.9 | 21.16
Bond    | 0.054529   | 0.078983   | 0.12014    |   7.5 |  4.08
Kspace  | 0.61329    | 0.94511    | 1.1402     |  15.8 | 48.80
Neigh   | 0.13056    | 0.13087    | 0.13102    |   0.0 |  6.76
Comm    | 0.031523   | 0.033923   | 0.035744   |   0.8 |  1.75
Output  | 0.00078271 | 0.00091104 | 0.0010635  |   0.0 |  0.05
Modify  | 0.33252    | 0.33354    | 0.33412    |   0.1 | 17.22
Other   |            | 0.003403   |            |       |  0.18

Nlocal:          189.5 ave         288 max         140 min
Histogram: 1 3 1 0 1 1 0 0 0 1
Nghost:        2024.38 ave        2137 max        1863 min
Histogram: 1 1 0 0 2 0 0 1 1 2
Neighs:        34640.9 ave       57394 max       21887 min
Histogram: 1 1 2 2 0 1 0 0 0 1

Total # of neighbors = 277127
Ave neighs/atom = 182.80145
Ave special neighs/atom = 9.9023747
Neighbor list builds = 77
Dangerous builds = 0
Resetting atom IDs ...
PPPM initialization ...
  using 12-bit tables for long-range coulomb (src/kspace.cpp:342)
  G vector (1/distance) = 0.25774138
  grid = 15 15 16
  stencil order = 5
  estimated absolute RMS force accuracy = 0.029186108
  estimated relative force accuracy = 8.7893097e-05
  using double precision KISS FFT
  3d grid and FFT values/proc = 2197 512
Generated 153 of 153 mixed pair_coeff terms from sixthpower mixing rule
Finding 1-2 1-3 1-4 neighbors ...
  special bond factors lj:    0        0        0       
  special bond factors coul:  0        0        0       
     3 = max # of 1-2 neighbors
     6 = max # of 1-3 neighbors
    12 = max # of 1-4 neighbors
    14 = max # of special neighbors
  special bonds CPU = 0.002 seconds
==================================Current bonds formed = 82 Minimum bonds desired = 111.6=======================================
==================================NVT PA POLYMERIZATION RUN: 300 C===============================
PPPM initialization ...
  using 12-bit tables for long-range coulomb (src/kspace.cpp:342)
  G vector (1/distance) = 0.25774138
  grid = 15 15 16
  stencil order = 5
  estimated absolute RMS force accuracy = 0.029186108
  estimated relative force accuracy = 8.7893097e-05
  using double precision KISS FFT
  3d grid and FFT values/proc = 2197 512
Generated 153 of 153 mixed pair_coeff terms from sixthpower mixing rule
WARNING: Inconsistent image flags (src/domain.cpp:1051)
Per MPI rank memory allocation (min/avg/max) = 22.4 | 22.6 | 23.05 Mbytes
   Step          Temp          Press         Density       f_PArxn[1]  
      4401   300           -13059.014      0.58246934     82           
      4500   354.20168     -122.47811      0.58246934     82           
      4600   355.61552      2696.4562      0.58246934     82           
      4700   339.18838     -1336.7619      0.58246934     82           
      4800   305.92643     -5155.0757      0.58096514     83           
      4900   308.48939      868.84545      0.58096514     83           
      5000   290.0118      -622.62708      0.58096514     83           
      5100   292.31846     -1080.4217      0.58096514     83           
      5200   282.21055     -407.01173      0.58096514     83           
      5300   311.21035     -1850.9856      0.57946095     84           
      5400   321.82392     -1589.4468      0.57946095     84           
      5401   320.37579     -1526.0325      0.57946095     84           
Loop time of 1.9338 on 8 procs for 1000 steps with 1512 atoms

Performance: 44.679 ns/day, 0.537 hours/ns, 517.117 timesteps/s, 781.881 katom-step/s
95.1% CPU use with 8 MPI tasks x no OpenMP threads

MPI task timing breakdown:
Section |  min time  |  avg time  |  max time  |%varavg| %total
---------------------------------------------------------------
Pair    | 0.30608    | 0.42972    | 0.64755    |  14.9 | 22.22
Bond    | 0.048984   | 0.057853   | 0.076598   |   3.5 |  2.99
Kspace  | 0.57998    | 0.79901    | 0.92327    |  11.0 | 41.32
Neigh   | 0.11487    | 0.11561    | 0.11607    |   0.1 |  5.98
Comm    | 0.033588   | 0.034332   | 0.035562   |   0.3 |  1.78
Output  | 0.00056388 | 0.00062031 | 0.00073296 |   0.0 |  0.03
Modify  | 0.47518    | 0.4929     | 0.50112    |   1.2 | 25.49
Other   |            | 0.003741   |            |       |  0.19

Nlocal:            189 ave         243 max         150 min
Histogram: 1 1 2 0 1 0 1 1 0 1
Nghost:        2066.75 ave        2160 max        1951 min
Histogram: 1 1 0 0 0 3 0 1 0 2
Neighs:        33239.4 ave       46522 max       25218 min
Histogram: 2 1 1 1 0 1 1 0 0 1

Total # of neighbors = 265915
Ave neighs/atom = 175.86971
Ave special neighs/atom = 9.9365079
Neighbor list builds = 49
Dangerous builds = 0
PPPM initialization ...
  using 12-bit tables for long-range coulomb (src/kspace.cpp:342)
  G vector (1/distance) = 0.25774138
  grid = 15 15 16
  stencil order = 5
  estimated absolute RMS force accuracy = 0.02921632
  estimated relative force accuracy = 8.7984079e-05
  using double precision KISS FFT
  3d grid and FFT values/proc = 2197 512
Generated 153 of 153 mixed pair_coeff terms from sixthpower mixing rule
WARNING: Inconsistent image flags (src/domain.cpp:1051)
Per MPI rank memory allocation (min/avg/max) = 22.4 | 22.64 | 23.05 Mbytes
   Step          Temp          Press         Density       f_PArxn[1]  
      5401   321.2239      -1526.0325      0.57946095     84           
      5500   310.20346     -8575.9501      0.57668788     85           
      5600   364.21809      949.93844      0.64361921     85           
      5700   338.74677      948.53954      0.67532459     86           
      5800   306.951       -482.52426      0.67959536     86           
      5900   297.31608      2100.7114      0.69972702     86           
      6000   335.67913     -1529.5298      0.76636678     87           
      6100   323.32124     -696.91559      0.79577127     87           
      6200   297.41117     -6498.5812      0.79125848     88           
      6300   309.19464      1523.215       0.84684581     88           
      6400   330.7331       479.73408      0.93235785     89           
      6401   335.25673      461.63633      0.93375554     89           
Loop time of 2.59984 on 8 procs for 1000 steps with 1502 atoms

Performance: 33.233 ns/day, 0.722 hours/ns, 384.640 timesteps/s, 577.729 katom-step/s
94.8% CPU use with 8 MPI tasks x no OpenMP threads

MPI task timing breakdown:
Section |  min time  |  avg time  |  max time  |%varavg| %total
---------------------------------------------------------------
Pair    | 0.55563    | 0.6707     | 0.95153    |  14.8 | 25.80
Bond    | 0.068134   | 0.081966   | 0.10205    |   3.5 |  3.15
Kspace  | 0.82019    | 1.1236     | 1.2535     |  12.4 | 43.22
Neigh   | 0.17544    | 0.17638    | 0.17701    |   0.1 |  6.78
Comm    | 0.03942    | 0.041091   | 0.04265    |   0.6 |  1.58
Output  | 0.00053    | 0.00059031 | 0.00074062 |   0.0 |  0.02
Modify  | 0.49991    | 0.50131    | 0.5022     |   0.1 | 19.28
Other   |            | 0.004202   |            |       |  0.16

Nlocal:         187.75 ave         221 max         162 min
Histogram: 2 0 2 1 0 0 0 2 0 1
Nghost:        2787.12 ave        2836 max        2733 min
Histogram: 2 0 0 1 0 2 1 0 0 2
Neighs:        53011.1 ave       64925 max       45530 min
Histogram: 2 1 2 0 0 0 1 1 0 1

Total # of neighbors = 424089
Ave neighs/atom = 282.34953
Ave special neighs/atom = 10.022636
Neighbor list builds = 64
Dangerous builds = 0
Resetting atom IDs ...
PPPM initialization ...
  using 12-bit tables for long-range coulomb (src/kspace.cpp:342)
  G vector (1/distance) = 0.26067204
  grid = 12 12 15
  stencil order = 5
  estimated absolute RMS force accuracy = 0.033097299
  estimated relative force accuracy = 9.9671532e-05
  using double precision KISS FFT
  3d grid and FFT values/proc = 1573 288
Generated 153 of 153 mixed pair_coeff terms from sixthpower mixing rule
Finding 1-2 1-3 1-4 neighbors ...
  special bond factors lj:    0        0        0       
  special bond factors coul:  0        0        0       
     3 = max # of 1-2 neighbors
     6 = max # of 1-3 neighbors
    12 = max # of 1-4 neighbors
    14 = max # of special neighbors
  special bonds CPU = 0.001 seconds
==================================Current bonds formed = 89 Minimum bonds desired = 111.6=======================================
==================================NVT PA POLYMERIZATION RUN: 300 C===============================
PPPM initialization ...
  using 12-bit tables for long-range coulomb (src/kspace.cpp:342)
  G vector (1/distance) = 0.26067204
  grid = 12 12 15
  stencil order = 5
  estimated absolute RMS force accuracy = 0.033097299
  estimated relative force accuracy = 9.9671532e-05
  using double precision KISS FFT
  3d grid and FFT values/proc = 1573 288
Generated 153 of 153 mixed pair_coeff terms from sixthpower mixing rule
WARNING: Inconsistent image flags (src/domain.cpp:1051)
Per MPI rank memory allocation (min/avg/max) = 22.47 | 22.7 | 23.12 Mbytes
   Step          Temp          Press         Density       f_PArxn[1]  
      6401   300            150.8612       0.93375554     89           
      6500   349.44271     -2173.5592      0.93129977     90           
      6600   345.99758      1826.7008      0.93129977     90           
      6700   334.69918     -3403.7217      0.92884401     91           
      6800   359.80161     -22631.985      0.92393249     93           
      6900   431.58994      3199.9487      0.9165652      96           
      7000   374.8659       1539.845       0.9165652      96           
      7100   341.42326     -296.01308      0.9165652      96           
      7200   313.32095      161.49957      0.9165652      96           
      7300   294.30931      392.789        0.9165652      96           
      7400   285.34174     -662.67895      0.9165652      96           
      7401   283.30662     -706.39583      0.9165652      96           
Loop time of 2.33145 on 8 procs for 1000 steps with 1488 atoms

Performance: 37.059 ns/day, 0.648 hours/ns, 428.918 timesteps/s, 638.230 katom-step/s
96.2% CPU use with 8 MPI tasks x no OpenMP threads

MPI task timing breakdown:
Section |  min time  |  avg time  |  max time  |%varavg| %total
---------------------------------------------------------------
Pair    | 0.58655    | 0.64943    | 0.76421    |   7.0 | 27.86
Bond    | 0.052207   | 0.056927   | 0.064991   |   1.9 |  2.44
Kspace  | 0.74304    | 0.86073    | 0.92082    |   6.1 | 36.92
Neigh   | 0.21274    | 0.21394    | 0.21486    |   0.2 |  9.18
Comm    | 0.039792   | 0.041672   | 0.043952   |   0.7 |  1.79
Output  | 0.00074937 | 0.0008677  | 0.001042   |   0.0 |  0.04
Modify  | 0.49899    | 0.50409    | 0.51075    |   0.5 | 21.62
Other   |            | 0.003781   |            |       |  0.16

Nlocal:            186 ave         210 max         152 min
Histogram: 1 0 0 0 1 1 2 2 0 1
Nghost:           2813 ave        2902 max        2724 min
Histogram: 2 0 0 2 0 1 0 1 0 2
Neighs:        51877.6 ave       61384 max       41461 min
Histogram: 1 0 0 0 3 2 1 0 0 1

Total # of neighbors = 415021
Ave neighs/atom = 278.91196
Ave special neighs/atom = 10.145161
Neighbor list builds = 62
Dangerous builds = 0
PPPM initialization ...
  using 12-bit tables for long-range coulomb (src/kspace.cpp:342)
  G vector (1/distance) = 0.26067221
  grid = 12 12 15
  stencil order = 5
  estimated absolute RMS force accuracy = 0.033228752
  estimated relative force accuracy = 0.0001000674
  using double precision KISS FFT
  3d grid and FFT values/proc = 1573 288
Generated 153 of 153 mixed pair_coeff terms from sixthpower mixing rule
WARNING: Inconsistent image flags (src/domain.cpp:1051)
Per MPI rank memory allocation (min/avg/max) = 22.47 | 22.7 | 23.12 Mbytes
   Step          Temp          Press         Density       f_PArxn[1]  
      7401   285.97393     -706.39581      0.9165652      96           
      7500   289.77276      1337.9623      0.90670917     96           
      7600   292.44933      170.68962      0.919169       96           
      7700   302.1817      -200.2795       0.92743216     96           
      7800   305.6458       430.02455      0.93692081     96           
      7900   308.32289      330.71702      0.93228909     96           
      8000   303.58232      360.85458      0.90690949     96           
      8100   292.68244      713.00319      0.89259487     96           
      8200   297.99835     -987.1566       0.90344524     96           
      8300   306.15847     -485.86902      0.90192748     96           
      8400   301.68223      509.37048      0.91254212     96           
      8401   302.46636      926.71604      0.91236727     96           
Loop time of 2.64372 on 8 procs for 1000 steps with 1488 atoms

Performance: 32.681 ns/day, 0.734 hours/ns, 378.255 timesteps/s, 562.844 katom-step/s
96.9% CPU use with 8 MPI tasks x no OpenMP threads

MPI task timing breakdown:
Section |  min time  |  avg time  |  max time  |%varavg| %total
---------------------------------------------------------------
Pair    | 0.66793    | 0.81357    | 0.9416     |   8.4 | 30.77
Bond    | 0.069321   | 0.079478   | 0.087217   |   1.9 |  3.01
Kspace  | 0.93072    | 1.0642     | 1.2192     |   7.7 | 40.26
Neigh   | 0.14828    | 0.14895    | 0.14982    |   0.1 |  5.63
Comm    | 0.039126   | 0.04145    | 0.043188   |   0.6 |  1.57
Output  | 0.00075638 | 0.00085216 | 0.0010228  |   0.0 |  0.03
Modify  | 0.48923    | 0.48997    | 0.49061    |   0.1 | 18.53
Other   |            | 0.005216   |            |       |  0.20

Nlocal:            186 ave         219 max         161 min
Histogram: 1 2 1 0 1 0 1 0 1 1
Nghost:        2833.75 ave        2935 max        2715 min
Histogram: 1 0 1 1 1 0 2 0 0 2
Neighs:        51432.2 ave       62354 max       43185 min
Histogram: 1 1 2 0 0 2 0 0 1 1

Total # of neighbors = 411458
Ave neighs/atom = 276.51747
Ave special neighs/atom = 10.145161
Neighbor list builds = 46
Dangerous builds = 0
Resetting atom IDs ...
PPPM initialization ...
  using 12-bit tables for long-range coulomb (src/kspace.cpp:342)
  G vector (1/distance) = 0.26053675
  grid = 12 12 15
  stencil order = 5
  estimated absolute RMS force accuracy = 0.033342877
  estimated relative force accuracy = 0.00010041108
  using double precision KISS FFT
  3d grid and FFT values/proc = 1573 288
Generated 153 of 153 mixed pair_coeff terms from sixthpower mixing rule
Finding 1-2 1-3 1-4 neighbors ...
  special bond factors lj:    0        0        0       
  special bond factors coul:  0        0        0       
     3 = max # of 1-2 neighbors
     6 = max # of 1-3 neighbors
    12 = max # of 1-4 neighbors
    14 = max # of special neighbors
  special bonds CPU = 0.000 seconds
==================================Current bonds formed = 96 Minimum bonds desired = 111.6=======================================
==================================NVT PA POLYMERIZATION RUN: 300 C===============================
PPPM initialization ...
  using 12-bit tables for long-range coulomb (src/kspace.cpp:342)
  G vector (1/distance) = 0.26053675
  grid = 12 12 15
  stencil order = 5
  estimated absolute RMS force accuracy = 0.033342877
  estimated relative force accuracy = 0.00010041108
  using double precision KISS FFT
  3d grid and FFT values/proc = 1573 288
Generated 153 of 153 mixed pair_coeff terms from sixthpower mixing rule
WARNING: Inconsistent image flags (src/domain.cpp:1051)
Per MPI rank memory allocation (min/avg/max) = 22.48 | 22.74 | 23.12 Mbytes
   Step          Temp          Press         Density       f_PArxn[1]  
      8401   300            906.52693      0.91236727     96           
      8500   320.01678     -726.13426      0.91236727     96           
      8600   321.05605     -12457.985      0.90992276     97           
      8700   330.69364      313.0611       0.90992276     97           
      8800   310.00489     -140.93241      0.90992276     97           
      8900   302.15407     -167.46419      0.90992276     97           
      9000   296.97702      135.415        0.90992276     97           
      9100   294.6421       1620.155       0.90992276     97           
      9200   307.38208      880.83804      0.90992276     97           
      9300   299.05082     -8295.9107      0.90747824     98           
      9400   326.9228      -678.54341      0.90747824     98           
      9401   326.92156     -777.97786      0.90747824     98           
Loop time of 2.22275 on 8 procs for 1000 steps with 1484 atoms

Performance: 38.871 ns/day, 0.617 hours/ns, 449.892 timesteps/s, 667.640 katom-step/s
96.4% CPU use with 8 MPI tasks x no OpenMP threads

MPI task timing breakdown:
Section |  min time  |  avg time  |  max time  |%varavg| %total
---------------------------------------------------------------
Pair    | 0.55745    | 0.63451    | 0.74318    |   7.1 | 28.55
Bond    | 0.04983    | 0.055301   | 0.065314   |   1.9 |  2.49
Kspace  | 0.73664    | 0.84934    | 0.92477    |   6.2 | 38.21
Neigh   | 0.14928    | 0.14952    | 0.14967    |   0.0 |  6.73
Comm    | 0.040788   | 0.041904   | 0.042487   |   0.3 |  1.89
Output  | 0.00062808 | 0.00068093 | 0.00077966 |   0.0 |  0.03
Modify  | 0.48117    | 0.48753    | 0.4937     |   0.5 | 21.93
Other   |            | 0.003959   |            |       |  0.18

Nlocal:          185.5 ave         211 max         154 min
Histogram: 1 0 0 1 0 3 1 1 0 1
Nghost:           2828 ave        2936 max        2691 min
Histogram: 1 1 0 0 0 2 1 1 1 1
Neighs:        51413.6 ave       60735 max       41786 min
Histogram: 1 0 1 0 2 2 0 1 0 1

Total # of neighbors = 411309
Ave neighs/atom = 277.1624
Ave special neighs/atom = 10.180593
Neighbor list builds = 47
Dangerous builds = 0
PPPM initialization ...
  using 12-bit tables for long-range coulomb (src/kspace.cpp:342)
  G vector (1/distance) = 0.2605368
  grid = 12 12 15
  stencil order = 5
  estimated absolute RMS force accuracy = 0.033379382
  estimated relative force accuracy = 0.00010052102
  using double precision KISS FFT
  3d grid and FFT values/proc = 1573 288
Generated 153 of 153 mixed pair_coeff terms from sixthpower mixing rule
WARNING: Inconsistent image flags (src/domain.cpp:1051)
Per MPI rank memory allocation (min/avg/max) = 22.49 | 22.76 | 23.12 Mbytes
   Step          Temp          Press         Density       f_PArxn[1]  
      9401   327.80335     -777.97786      0.90747824     98           
      9500   311.23319     -410.0256       0.91409154     98           
      9600   303.03553      944.32256      0.92794882     98           
      9700   301.24243      93.238763      0.94965089     98           
      9800   292.94014      3023.8768      0.94788514     98           
      9900   292.6674      -577.25421      0.94723747     98           
     10000   303.28135     -1201.0741      0.96933661     98           
     10100   307.46112     -251.74216      0.99778056     98           
     10200   299.14621      201.16066      1.0081814      98           
     10300   297.09219      1145.3741      1.0069038      98           
     10400   292.9861      -593.56947      1.002547       98           
     10401   294.194       -477.07704      1.0028569      98           
Loop time of 2.7369 on 8 procs for 1000 steps with 1484 atoms

Performance: 31.569 ns/day, 0.760 hours/ns, 365.377 timesteps/s, 542.219 katom-step/s
96.4% CPU use with 8 MPI tasks x no OpenMP threads

MPI task timing breakdown:
Section |  min time  |  avg time  |  max time  |%varavg| %total
---------------------------------------------------------------
Pair    | 0.7629     | 0.86352    | 0.97602    |   8.1 | 31.55
Bond    | 0.075216   | 0.079987   | 0.085921   |   1.4 |  2.92
Kspace  | 0.99697    | 1.116      | 1.2213     |   7.5 | 40.78
Neigh   | 0.12176    | 0.1228     | 0.12334    |   0.2 |  4.49
Comm    | 0.034674   | 0.035144   | 0.036043   |   0.3 |  1.28
Output  | 0.00063096 | 0.00069195 | 0.00079367 |   0.0 |  0.03
Modify  | 0.51211    | 0.51379    | 0.51462    |   0.1 | 18.77
Other   |            | 0.004976   |            |       |  0.18

Nlocal:          185.5 ave         201 max         156 min
Histogram: 1 0 0 0 1 1 1 1 1 2
Nghost:           3034 ave        3113 max        2975 min
Histogram: 2 0 1 0 2 1 1 0 0 1
Neighs:        57017.1 ave       63770 max       46365 min
Histogram: 1 0 0 0 1 2 1 1 0 2

Total # of neighbors = 456137
Ave neighs/atom = 307.36995
Ave special neighs/atom = 10.180593
Neighbor list builds = 37
Dangerous builds = 0
Resetting atom IDs ...
PPPM initialization ...
  using 12-bit tables for long-range coulomb (src/kspace.cpp:342)
  G vector (1/distance) = 0.26348106
  grid = 12 12 15
  stencil order = 5
  estimated absolute RMS force accuracy = 0.0309708
  estimated relative force accuracy = 9.3267646e-05
  using double precision KISS FFT
  3d grid and FFT values/proc = 1573 288
Generated 153 of 153 mixed pair_coeff terms from sixthpower mixing rule
Finding 1-2 1-3 1-4 neighbors ...
  special bond factors lj:    0        0        0       
  special bond factors coul:  0        0        0       
     3 = max # of 1-2 neighbors
     6 = max # of 1-3 neighbors
    12 = max # of 1-4 neighbors
    14 = max # of special neighbors
  special bonds CPU = 0.000 seconds
==================================Current bonds formed = 98 Minimum bonds desired = 111.6=======================================
==================================NVT PA POLYMERIZATION RUN: 300 C===============================
PPPM initialization ...
  using 12-bit tables for long-range coulomb (src/kspace.cpp:342)
  G vector (1/distance) = 0.26348106
  grid = 12 12 15
  stencil order = 5
  estimated absolute RMS force accuracy = 0.0309708
  estimated relative force accuracy = 9.3267646e-05
  using double precision KISS FFT
  3d grid and FFT values/proc = 1573 288
Generated 153 of 153 mixed pair_coeff terms from sixthpower mixing rule
WARNING: Inconsistent image flags (src/domain.cpp:1051)
Per MPI rank memory allocation (min/avg/max) = 22.49 | 22.77 | 23.18 Mbytes
   Step          Temp          Press         Density       f_PArxn[1]  
     10401   300           -424.80272      1.0028569      98           
     10500   302.70939      1056.5244      1.0028569      98           
     10600   309.81187     -2208.3822      1.0028569      98           
     10700   303.22296      376.50968      1.0028569      98           
     10800   299.74372     -1980.9387      1.0028569      98           
     10900   293.06824     -51.996487      1.0028569      98           
     11000   308.52377     -2178.1814      1.0001554      99           
     11100   314.32442      1149.9211      1.0001554      99           
     11200   301.19076      2.6967207      1.0001554      99           
     11300   296.30221     -769.20495      1.0001554      99           
     11400   295.59935     -666.9893       1.0001554      99           
     11401   296.27246     -856.14181      1.0001554      99           
Loop time of 2.37748 on 8 procs for 1000 steps with 1482 atoms

Performance: 36.341 ns/day, 0.660 hours/ns, 420.613 timesteps/s, 623.349 katom-step/s
96.5% CPU use with 8 MPI tasks x no OpenMP threads

MPI task timing breakdown:
Section |  min time  |  avg time  |  max time  |%varavg| %total
---------------------------------------------------------------
Pair    | 0.59293    | 0.69753    | 0.80035    |   8.4 | 29.34
Bond    | 0.048231   | 0.05568    | 0.062278   |   2.0 |  2.34
Kspace  | 0.76616    | 0.87135    | 0.97771    |   7.6 | 36.65
Neigh   | 0.16169    | 0.16208    | 0.16256    |   0.1 |  6.82
Comm    | 0.040076   | 0.040862   | 0.041448   |   0.2 |  1.72
Output  | 0.0023912  | 0.0024414  | 0.0025636  |   0.1 |  0.10
Modify  | 0.53634    | 0.54297    | 0.54879    |   0.6 | 22.84
Other   |            | 0.004567   |            |       |  0.19

Nlocal:         185.25 ave         208 max         165 min
Histogram: 2 1 1 0 1 0 0 0 2 1
Nghost:        3001.25 ave        3074 max        2918 min
Histogram: 1 1 1 0 1 0 0 2 1 1
Neighs:        57311.5 ave       65658 max       49653 min
Histogram: 2 1 0 1 1 0 0 1 0 2

Total # of neighbors = 458492
Ave neighs/atom = 309.37382
Ave special neighs/atom = 10.198381
Neighbor list builds = 41
Dangerous builds = 0
PPPM initialization ...
  using 12-bit tables for long-range coulomb (src/kspace.cpp:342)
  G vector (1/distance) = 0.26348106
  grid = 12 12 15
  stencil order = 5
  estimated absolute RMS force accuracy = 0.030988348
  estimated relative force accuracy = 9.3320491e-05
  using double precision KISS FFT
  3d grid and FFT values/proc = 1573 288
Generated 153 of 153 mixed pair_coeff terms from sixthpower mixing rule
WARNING: Inconsistent image flags (src/domain.cpp:1051)
Per MPI rank memory allocation (min/avg/max) = 22.49 | 22.77 | 23.18 Mbytes
   Step          Temp          Press         Density       f_PArxn[1]  
     11401   296.67256     -856.14181      1.0001554      99           
     11500   302.51656     -6556.6464      1.0040075      100          
     11600   315.64147      120.17952      1.0286888      100          
     11700   307.30056      668.60289      1.0259185      100          
     11800   301.33992     -1107.1307      1.0083982      100          
     11900   285.70154      1182.5813      1.0173262      100          
     12000   298.19226     -13889.13       1.0181723      101          
     12100   335.13946      1160.4017      1.0702073      101          
     12200   319.53249      2003.8549      1.0361625      101          
     12300   304.27767     -1444.2725      1.0304589      101          
     12400   291.0159       57.566301      1.0387493      101          
     12401   291.078       -60.913887      1.0391555      101          
Loop time of 2.92623 on 8 procs for 1000 steps with 1478 atoms

Performance: 29.526 ns/day, 0.813 hours/ns, 341.736 timesteps/s, 505.086 katom-step/s
96.7% CPU use with 8 MPI tasks x no OpenMP threads

MPI task timing breakdown:
Section |  min time  |  avg time  |  max time  |%varavg| %total
---------------------------------------------------------------
Pair    | 0.78191    | 0.92878    | 1.0821     |  11.8 | 31.74
Bond    | 0.068738   | 0.078197   | 0.085773   |   2.2 |  2.67
Kspace  | 1.0414     | 1.2033     | 1.3605     |  11.0 | 41.12
Neigh   | 0.1907     | 0.19091    | 0.19101    |   0.0 |  6.52
Comm    | 0.035775   | 0.037694   | 0.039101   |   0.7 |  1.29
Output  | 0.00060683 | 0.00070282 | 0.00085912 |   0.0 |  0.02
Modify  | 0.48118    | 0.48297    | 0.48489    |   0.2 | 16.50
Other   |            | 0.003715   |            |       |  0.13

Nlocal:         184.75 ave         214 max         163 min
Histogram: 2 1 0 1 1 0 0 2 0 1
Nghost:         3090.5 ave        3205 max        3004 min
Histogram: 2 0 0 2 2 0 0 1 0 1
Neighs:        59602.1 ave       70825 max       51240 min
Histogram: 3 0 1 0 0 1 0 1 1 1

Total # of neighbors = 476817
Ave neighs/atom = 322.60961
Ave special neighs/atom = 10.2341
Neighbor list builds = 49
Dangerous builds = 0
Resetting atom IDs ...
PPPM initialization ...
  using 12-bit tables for long-range coulomb (src/kspace.cpp:342)
  G vector (1/distance) = 0.26475831
  grid = 12 12 15
  stencil order = 5
  estimated absolute RMS force accuracy = 0.030026366
  estimated relative force accuracy = 9.0423509e-05
  using double precision KISS FFT
  3d grid and FFT values/proc = 1573 288
Generated 153 of 153 mixed pair_coeff terms from sixthpower mixing rule
Finding 1-2 1-3 1-4 neighbors ...
  special bond factors lj:    0        0        0       
  special bond factors coul:  0        0        0       
     3 = max # of 1-2 neighbors
     6 = max # of 1-3 neighbors
    12 = max # of 1-4 neighbors
    14 = max # of special neighbors
  special bonds CPU = 0.001 seconds
==================================Current bonds formed = 101 Minimum bonds desired = 111.6=======================================
==================================NVT PA POLYMERIZATION RUN: 300 C===============================
PPPM initialization ...
  using 12-bit tables for long-range coulomb (src/kspace.cpp:342)
  G vector (1/distance) = 0.26475831
  grid = 12 12 15
  stencil order = 5
  estimated absolute RMS force accuracy = 0.030026366
  estimated relative force accuracy = 9.0423509e-05
  using double precision KISS FFT
  3d grid and FFT values/proc = 1573 288
Generated 153 of 153 mixed pair_coeff terms from sixthpower mixing rule
WARNING: Inconsistent image flags (src/domain.cpp:1051)
Per MPI rank memory allocation (min/avg/max) = 22.49 | 22.8 | 23.18 Mbytes
   Step          Temp          Press         Density       f_PArxn[1]  
     12401   300            15.172802      1.0391555      101          
     12500   305.03772     -3440.8327      1.0391555      101          
     12600   312.47588      481.28664      1.0391555      101          
     12700   312.94628     -3640.3463      1.0391555      101          
     12800   293.62847      2943.1083      1.0391555      101          
     12900   303.2128      -774.21612      1.0391555      101          
     13000   295.34759     -266.91973      1.0391555      101          
     13100   307.33959     -255.54979      1.0391555      101          
     13200   300.15596     -3528.1028      1.0391555      101          
     13300   301.01138     -1449.7925      1.0391555      101          
     13400   300.54815      260.55396      1.0391555      101          
     13401   300.35902     -295.21483      1.0391555      101          
Loop time of 2.38348 on 8 procs for 1000 steps with 1478 atoms

Performance: 36.250 ns/day, 0.662 hours/ns, 419.555 timesteps/s, 620.102 katom-step/s
96.1% CPU use with 8 MPI tasks x no OpenMP threads

MPI task timing breakdown:
Section |  min time  |  avg time  |  max time  |%varavg| %total
---------------------------------------------------------------
Pair    | 0.62174    | 0.73153    | 0.87901    |  10.5 | 30.69
Bond    | 0.047299   | 0.054598   | 0.061925   |   2.0 |  2.29
Kspace  | 0.78067    | 0.93079    | 1.0401     |   9.3 | 39.05
Neigh   | 0.13921    | 0.13956    | 0.13999    |   0.1 |  5.86
Comm    | 0.034719   | 0.03765    | 0.041467   |   1.4 |  1.58
Output  | 0.0013422  | 0.0014132  | 0.0015321  |   0.1 |  0.06
Modify  | 0.47689    | 0.48487    | 0.49106    |   0.6 | 20.34
Other   |            | 0.003069   |            |       |  0.13

Nlocal:         184.75 ave         213 max         154 min
Histogram: 1 1 0 1 1 0 0 2 1 1
Nghost:        3080.12 ave        3164 max        3006 min
Histogram: 2 0 1 1 1 0 0 1 0 2
Neighs:        59713.8 ave       69577 max       48439 min
Histogram: 2 0 0 2 0 0 0 0 3 1

Total # of neighbors = 477710
Ave neighs/atom = 323.2138
Ave special neighs/atom = 10.2341
Neighbor list builds = 35
Dangerous builds = 0
PPPM initialization ...
  using 12-bit tables for long-range coulomb (src/kspace.cpp:342)
  G vector (1/distance) = 0.26475831
  grid = 12 12 15
  stencil order = 5
  estimated absolute RMS force accuracy = 0.030026366
  estimated relative force accuracy = 9.0423509e-05
  using double precision KISS FFT
  3d grid and FFT values/proc = 1573 288
Generated 153 of 153 mixed pair_coeff terms from sixthpower mixing rule
WARNING: Inconsistent image flags (src/domain.cpp:1051)
Per MPI rank memory allocation (min/avg/max) = 22.54 | 22.81 | 23.18 Mbytes
   Step          Temp          Press         Density       f_PArxn[1]  
     13401   300.35902     -295.21483      1.0391555      101          
     13500   308.92209     -823.65458      1.0491086      101          
     13600   311.20415     -726.12616      1.0676155      101          
     13700   312.31857      629.9388       1.0589851      101          
     13800   300.45293     -2300.1162      1.0493186      101          
     13900   302.64192      635.44536      1.0767881      101          
     14000   295.14005      22.373737      1.0949148      101          
     14100   292.84401     -1186.0224      1.0934889      101          
     14200   300.17623     -1484.177       1.0865317      101          
     14300   314.4893       2372.2713      1.0883816      101          
     14400   305.37092     -1079.2018      1.095237       101          
     14401   300.86977     -1212.1291      1.0954906      101          
Loop time of 2.91296 on 8 procs for 1000 steps with 1478 atoms

Performance: 29.661 ns/day, 0.809 hours/ns, 343.294 timesteps/s, 507.388 katom-step/s
96.9% CPU use with 8 MPI tasks x no OpenMP threads

MPI task timing breakdown:
Section |  min time  |  avg time  |  max time  |%varavg| %total
---------------------------------------------------------------
Pair    | 0.80023    | 0.96375    | 1.1151     |  10.6 | 33.08
Bond    | 0.067807   | 0.077851   | 0.087145   |   2.2 |  2.67
Kspace  | 1.0248     | 1.1845     | 1.3589     |  10.1 | 40.66
Neigh   | 0.13908    | 0.13922    | 0.13937    |   0.0 |  4.78
Comm    | 0.035886   | 0.037152   | 0.039028   |   0.6 |  1.28
Output  | 0.00064142 | 0.0006965  | 0.00081917 |   0.0 |  0.02
Modify  | 0.50093    | 0.5034     | 0.50623    |   0.3 | 17.28
Other   |            | 0.006422   |            |       |  0.22

Nlocal:         184.75 ave         209 max         156 min
Histogram: 1 1 0 0 1 1 2 0 1 1
Nghost:        3166.62 ave        3230 max        3105 min
Histogram: 1 1 1 1 1 0 0 0 1 2
Neighs:        62926.5 ave       72045 max       51500 min
Histogram: 1 1 0 0 2 0 0 2 0 2

Total # of neighbors = 503412
Ave neighs/atom = 340.60352
Ave special neighs/atom = 10.2341
Neighbor list builds = 37
Dangerous builds = 0
Resetting atom IDs ...
PPPM initialization ...
  using 12-bit tables for long-range coulomb (src/kspace.cpp:342)
  G vector (1/distance) = 0.26629556
  grid = 12 12 15
  stencil order = 5
  estimated absolute RMS force accuracy = 0.028856853
  estimated relative force accuracy = 8.6901555e-05
  using double precision KISS FFT
  3d grid and FFT values/proc = 1573 288
Generated 153 of 153 mixed pair_coeff terms from sixthpower mixing rule
Finding 1-2 1-3 1-4 neighbors ...
  special bond factors lj:    0        0        0       
  special bond factors coul:  0        0        0       
     3 = max # of 1-2 neighbors
     6 = max # of 1-3 neighbors
    12 = max # of 1-4 neighbors
    14 = max # of special neighbors
  special bonds CPU = 0.002 seconds
==================================Current bonds formed = 101 Minimum bonds desired = 111.6=======================================
==================================NVT PA POLYMERIZATION RUN: 300 C===============================
PPPM initialization ...
  using 12-bit tables for long-range coulomb (src/kspace.cpp:342)
  G vector (1/distance) = 0.26629556
  grid = 12 12 15
  stencil order = 5
  estimated absolute RMS force accuracy = 0.028856853
  estimated relative force accuracy = 8.6901555e-05
  using double precision KISS FFT
  3d grid and FFT values/proc = 1573 288
Generated 153 of 153 mixed pair_coeff terms from sixthpower mixing rule
WARNING: Inconsistent image flags (src/domain.cpp:1051)
Per MPI rank memory allocation (min/avg/max) = 22.54 | 22.82 | 23.18 Mbytes
   Step          Temp          Press         Density       f_PArxn[1]  
     14401   300           -1220.8895      1.0954906      101          
     14500   307.69447     -1116.3584      1.0954906      101          
     14600   298.78168      1527.3538      1.0954906      101          
     14700   287.5272       1910.9956      1.0954906      101          
     14800   298.21535      685.85925      1.0954906      101          
     14900   305.45856      521.429        1.0954906      101          
     15000   299.63342      623.30109      1.0954906      101          
     15100   294.82083      2078.7845      1.0954906      101          
     15200   301.74357      557.54919      1.0954906      101          
     15300   292.87956      195.56723      1.0954906      101          
     15400   310.02818     -34.723023      1.0954906      101          
     15401   308.07873     -457.35236      1.0954906      101          
Loop time of 2.35756 on 8 procs for 1000 steps with 1478 atoms

Performance: 36.648 ns/day, 0.655 hours/ns, 424.168 timesteps/s, 626.920 katom-step/s
96.6% CPU use with 8 MPI tasks x no OpenMP threads

MPI task timing breakdown:
Section |  min time  |  avg time  |  max time  |%varavg| %total
---------------------------------------------------------------
Pair    | 0.66159    | 0.76116    | 0.90023    |   8.3 | 32.29
Bond    | 0.05095    | 0.0554     | 0.061336   |   1.6 |  2.35
Kspace  | 0.80019    | 0.93839    | 1.0385     |   7.5 | 39.80
Neigh   | 0.11905    | 0.11954    | 0.11998    |   0.1 |  5.07
Comm    | 0.03525    | 0.036979   | 0.038578   |   0.7 |  1.57
Output  | 0.0016464  | 0.0022212  | 0.0038948  |   2.0 |  0.09
Modify  | 0.43308    | 0.44093    | 0.4429     |   0.5 | 18.70
Other   |            | 0.002941   |            |       |  0.12

Nlocal:         184.75 ave         215 max         161 min
Histogram: 1 1 1 1 2 0 0 1 0 1
Nghost:           3214 ave        3313 max        3110 min
Histogram: 1 1 0 2 0 0 2 0 0 2
Neighs:        62981.2 ave       74048 max       53717 min
Histogram: 2 0 0 2 1 0 1 0 1 1

Total # of neighbors = 503850
Ave neighs/atom = 340.89986
Ave special neighs/atom = 10.2341
Neighbor list builds = 29
Dangerous builds = 0
PPPM initialization ...
  using 12-bit tables for long-range coulomb (src/kspace.cpp:342)
  G vector (1/distance) = 0.26629556
  grid = 12 12 15
  stencil order = 5
  estimated absolute RMS force accuracy = 0.028856853
  estimated relative force accuracy = 8.6901555e-05
  using double precision KISS FFT
  3d grid and FFT values/proc = 1573 288
Generated 153 of 153 mixed pair_coeff terms from sixthpower mixing rule
WARNING: Inconsistent image flags (src/domain.cpp:1051)
Per MPI rank memory allocation (min/avg/max) = 22.54 | 22.83 | 23.18 Mbytes
   Step          Temp          Press         Density       f_PArxn[1]  
     15401   308.07873     -457.35236      1.0954906      101          
[...]
Kspace  | 1.0283     | 1.096      | 1.311      |   8.1 | 37.56
Neigh   | 0.12921    | 0.1293     | 0.12954    |   0.0 |  4.43
Comm    | 0.043226   | 0.044546   | 0.045911   |   0.4 |  1.53
Output  | 0.00066875 | 0.00072748 | 0.00091792 |   0.0 |  0.02
Modify  | 0.65382    | 0.65799    | 0.66943    |   0.6 | 22.55
Other   |            | 0.004226   |            |       |  0.14

Nlocal:          184.5 ave         198 max         149 min
Histogram: 1 0 0 0 0 0 1 2 3 1
Nghost:        3383.38 ave        3487 max        3287 min
Histogram: 1 0 0 2 2 1 1 0 0 1
Neighs:        71879.4 ave       76067 max       57828 min
Histogram: 1 0 0 0 0 0 0 1 4 2

Total # of neighbors = 575035
Ave neighs/atom = 389.59011
Ave special neighs/atom = 10.252033
Neighbor list builds = 28
Dangerous builds = 0
PPPM initialization ...
  using 12-bit tables for long-range coulomb (src/kspace.cpp:342)
  G vector (1/distance) = 0.26986837
  grid = 12 12 15
  stencil order = 5
  estimated absolute RMS force accuracy = 0.026300982
  estimated relative force accuracy = 7.9204626e-05
  using double precision KISS FFT
  3d grid and FFT values/proc = 1573 288
Generated 153 of 153 mixed pair_coeff terms from sixthpower mixing rule
Per MPI rank memory allocation (min/avg/max) = 22.74 | 22.9 | 23.18 Mbytes
   Step          Temp          Press         Density       f_PArxn[1]  
    205401   312.29696      2740.2025      1.2364726      102          
    205500   303.88897      828.09433      1.2265473      102          
    205600   291.33574     -598.38994      1.2041291      102          
    205700   296.57576      1444.7729      1.21642        102          
    205800   305.69925     -834.96518      1.2142608      102          
    205900   304.1101      -1198.5516      1.2288815      102          
    206000   291.08087      993.02759      1.2404326      102          
    206100   291.27604     -561.06139      1.2279946      102          
    206200   291.48293      17.442201      1.2255449      102          
    206300   302.79192      875.66555      1.2265134      102          
    206400   305.78628     -337.35846      1.2158086      102          
    206401   306.11891     -19.320015      1.2153725      102          
Loop time of 3.37797 on 8 procs for 1000 steps with 1476 atoms

Performance: 25.577 ns/day, 0.938 hours/ns, 296.035 timesteps/s, 436.948 katom-step/s
94.0% CPU use with 8 MPI tasks x no OpenMP threads

MPI task timing breakdown:
Section |  min time  |  avg time  |  max time  |%varavg| %total
---------------------------------------------------------------
Pair    | 0.94605    | 1.143      | 1.2131     |   7.9 | 33.84
Bond    | 0.070525   | 0.083007   | 0.096331   |   2.5 |  2.46
Kspace  | 1.2858     | 1.3587     | 1.5673     |   7.7 | 40.22
Neigh   | 0.13089    | 0.13132    | 0.13186    |   0.1 |  3.89
Comm    | 0.04169    | 0.042742   | 0.043425   |   0.3 |  1.27
Output  | 0.00064413 | 0.00074077 | 0.00092012 |   0.0 |  0.02
Modify  | 0.61217    | 0.61359    | 0.61409    |   0.1 | 18.16
Other   |            | 0.004917   |            |       |  0.15

Nlocal:          184.5 ave         198 max         159 min
Histogram: 1 0 0 0 1 0 2 2 0 2
Nghost:         3386.5 ave        3467 max        3290 min
Histogram: 1 0 0 2 1 0 2 0 1 1
Neighs:        71071.5 ave       77097 max       60686 min
Histogram: 1 0 0 1 0 1 2 0 1 2

Total # of neighbors = 568572
Ave neighs/atom = 385.21138
Ave special neighs/atom = 10.252033
Neighbor list builds = 31
Dangerous builds = 0
Resetting atom IDs ...
PPPM initialization ...
  using 12-bit tables for long-range coulomb (src/kspace.cpp:342)
  G vector (1/distance) = 0.26937429
  grid = 12 12 15
  stencil order = 5
  estimated absolute RMS force accuracy = 0.026644448
  estimated relative force accuracy = 8.0238963e-05
  using double precision KISS FFT
  3d grid and FFT values/proc = 1573 288
Generated 153 of 153 mixed pair_coeff terms from sixthpower mixing rule
Finding 1-2 1-3 1-4 neighbors ...
  special bond factors lj:    0        0        0       
  special bond factors coul:  0        0        0       
     3 = max # of 1-2 neighbors
     6 = max # of 1-3 neighbors
    12 = max # of 1-4 neighbors
    14 = max # of special neighbors
  special bonds CPU = 0.004 seconds
==================================Current bonds formed = 102 Minimum bonds desired = 111.6=======================================
==================================NVT PA POLYMERIZATION RUN: 300 C===============================
PPPM initialization ...
  using 12-bit tables for long-range coulomb (src/kspace.cpp:342)
  G vector (1/distance) = 0.26937429
  grid = 12 12 15
  stencil order = 5
  estimated absolute RMS force accuracy = 0.026644448
  estimated relative force accuracy = 8.0238963e-05
  using double precision KISS FFT
  3d grid and FFT values/proc = 1573 288
Generated 153 of 153 mixed pair_coeff terms from sixthpower mixing rule
Per MPI rank memory allocation (min/avg/max) = 22.74 | 22.9 | 23.18 Mbytes
   Step          Temp          Press         Density       f_PArxn[1]  
    206401   300           -86.616965      1.2153725      102          
    206500   300.64841      904.38115      1.2153725      102          
    206600   312.00971     -1220.8751      1.2153725      102          
    206700   310.19458      2861.0612      1.2153725      102          
    206800   300.62895      697.27536      1.2153725      102          
    206900   305.14807     -1728.3251      1.2153725      102          
    207000   298.56947      2698.8168      1.2153725      102          
    207100   300.23018     -1761.3115      1.2153725      102          
    207200   301.2097       3351.9934      1.2153725      102          
    207300   307.4411       1522.3689      1.2153725      102          
    207400   302.77071      2003.6303      1.2153725      102          
    207401   303.98535      1415.8072      1.2153725      102          
Loop time of 2.88893 on 8 procs for 1000 steps with 1476 atoms

Performance: 29.907 ns/day, 0.802 hours/ns, 346.149 timesteps/s, 510.916 katom-step/s
93.8% CPU use with 8 MPI tasks x no OpenMP threads

MPI task timing breakdown:
Section |  min time  |  avg time  |  max time  |%varavg| %total
---------------------------------------------------------------
Pair    | 0.77123    | 0.90248    | 0.96332    |   5.9 | 31.24
Bond    | 0.050804   | 0.060435   | 0.066948   |   1.8 |  2.09
Kspace  | 1.0154     | 1.0741     | 1.2064     |   5.4 | 37.18
Neigh   | 0.14448    | 0.14479    | 0.14531    |   0.1 |  5.01
Comm    | 0.042642   | 0.043668   | 0.045199   |   0.4 |  1.51
Output  | 0.00062941 | 0.00071854 | 0.00088341 |   0.0 |  0.02
Modify  | 0.6523     | 0.65867    | 0.6665     |   0.5 | 22.80
Other   |            | 0.004071   |            |       |  0.14

Nlocal:          184.5 ave         195 max         164 min
Histogram: 1 0 0 0 1 0 1 1 3 1
Nghost:        3324.25 ave        3404 max        3250 min
Histogram: 1 1 2 0 0 0 2 0 1 1
Neighs:        70628.2 ave       73680 max       62801 min
Histogram: 1 0 0 0 0 1 1 0 1 4

Total # of neighbors = 565026
Ave neighs/atom = 382.80894
Ave special neighs/atom = 10.252033
Neighbor list builds = 33
Dangerous builds = 0
PPPM initialization ...
  using 12-bit tables for long-range coulomb (src/kspace.cpp:342)
  G vector (1/distance) = 0.26937429
  grid = 12 12 15
  stencil order = 5
  estimated absolute RMS force accuracy = 0.026644448
  estimated relative force accuracy = 8.0238963e-05
  using double precision KISS FFT
  3d grid and FFT values/proc = 1573 288
Generated 153 of 153 mixed pair_coeff terms from sixthpower mixing rule
Per MPI rank memory allocation (min/avg/max) = 22.74 | 22.9 | 23.18 Mbytes
   Step          Temp          Press         Density       f_PArxn[1]  
    207401   303.98535      1415.8072      1.2153725      102          
    207500   299.76601      2032.6243      1.20574        102          
    207600   293.40412      527.70532      1.2311017      102          
    207700   294.01305      228.83111      1.2372226      102          
    207800   293.64103      134.10049      1.2313683      102          
    207900   311.2395       105.68308      1.2294909      102          
    208000   302.40223     -2427.447       1.2212966      102          
    208100   297.12335      1547.7753      1.2251917      102          
    208200   293.11891      1648.3056      1.2377743      102          
    208300   284.74543     -2586.2832      1.2307435      102          
    208400   288.63486     -1719.3915      1.2355438      102          
    208401   289.43169     -314.82887      1.23615        102          
Loop time of 3.44031 on 8 procs for 1000 steps with 1476 atoms

Performance: 25.114 ns/day, 0.956 hours/ns, 290.672 timesteps/s, 429.032 katom-step/s
93.1% CPU use with 8 MPI tasks x no OpenMP threads

MPI task timing breakdown:
Section |  min time  |  avg time  |  max time  |%varavg| %total
---------------------------------------------------------------
Pair    | 1.0144     | 1.1544     | 1.2525     |   6.1 | 33.56
Bond    | 0.07748    | 0.082497   | 0.08713    |   1.2 |  2.40
Kspace  | 1.2794     | 1.3837     | 1.5288     |   5.9 | 40.22
Neigh   | 0.14115    | 0.14214    | 0.1428     |   0.2 |  4.13
Comm    | 0.043119   | 0.046561   | 0.048067   |   0.8 |  1.35
Output  | 0.00056888 | 0.00064233 | 0.00080762 |   0.0 |  0.02
Modify  | 0.61986    | 0.62139    | 0.62353    |   0.2 | 18.06
Other   |            | 0.008993   |            |       |  0.26

Nlocal:          184.5 ave         195 max         160 min
Histogram: 1 0 0 0 0 0 3 1 1 2
Nghost:        3361.62 ave        3401 max        3304 min
Histogram: 1 0 0 0 0 4 0 2 0 1
Neighs:        71572.4 ave       75722 max       62076 min
Histogram: 1 0 0 0 0 0 2 2 0 3

Total # of neighbors = 572579
Ave neighs/atom = 387.92615
Ave special neighs/atom = 10.252033
Neighbor list builds = 33
Dangerous builds = 0
Resetting atom IDs ...
PPPM initialization ...
  using 12-bit tables for long-range coulomb (src/kspace.cpp:342)
  G vector (1/distance) = 0.26986088
  grid = 12 12 15
  stencil order = 5
  estimated absolute RMS force accuracy = 0.026306157
  estimated relative force accuracy = 7.922021e-05
  using double precision KISS FFT
  3d grid and FFT values/proc = 1573 288
Generated 153 of 153 mixed pair_coeff terms from sixthpower mixing rule
Finding 1-2 1-3 1-4 neighbors ...
  special bond factors lj:    0        0        0       
  special bond factors coul:  0        0        0       
     3 = max # of 1-2 neighbors
     6 = max # of 1-3 neighbors
    12 = max # of 1-4 neighbors
    14 = max # of special neighbors
  special bonds CPU = 0.001 seconds
==================================Current bonds formed = 102 Minimum bonds desired = 111.6=======================================
==================================NVT PA POLYMERIZATION RUN: 300 C===============================
PPPM initialization ...
  using 12-bit tables for long-range coulomb (src/kspace.cpp:342)
  G vector (1/distance) = 0.26986088
  grid = 12 12 15
  stencil order = 5
  estimated absolute RMS force accuracy = 0.026306157
  estimated relative force accuracy = 7.922021e-05
  using double precision KISS FFT
  3d grid and FFT values/proc = 1573 288
Generated 153 of 153 mixed pair_coeff terms from sixthpower mixing rule
Per MPI rank memory allocation (min/avg/max) = 22.74 | 22.9 | 23.18 Mbytes
   Step          Temp          Press         Density       f_PArxn[1]  
    208401   300           -196.75843      1.23615        102          
    208500   298.70785      856.09803      1.23615        102          
    208600   292.32253      557.39527      1.23615        102          
    208700   292.24911      233.99522      1.23615        102          
    208800   294.65684      162.56442      1.23615        102          
    208900   295.02259     -521.79956      1.23615        102          
    209000   301.61607     -818.56534      1.23615        102          
    209100   302.69068      1654.8814      1.23615        102          
    209200   306.72322     -1642.3073      1.23615        102          
    209300   309.61018      1429.4165      1.23615        102          
    209400   297.19129     -695.28109      1.23615        102          
    209401   295.12756     -384.47722      1.23615        102          
Loop time of 2.77621 on 8 procs for 1000 steps with 1476 atoms

Performance: 31.122 ns/day, 0.771 hours/ns, 360.203 timesteps/s, 531.659 katom-step/s
95.4% CPU use with 8 MPI tasks x no OpenMP threads

MPI task timing breakdown:
Section |  min time  |  avg time  |  max time  |%varavg| %total
---------------------------------------------------------------
Pair    | 0.74077    | 0.90439    | 0.94483    |   6.6 | 32.58
Bond    | 0.04662    | 0.058663   | 0.063818   |   2.2 |  2.11
Kspace  | 0.99197    | 1.032      | 1.1988     |   6.3 | 37.17
Neigh   | 0.14495    | 0.14539    | 0.1456     |   0.1 |  5.24
Comm    | 0.040632   | 0.041906   | 0.043296   |   0.4 |  1.51
Output  | 0.000616   | 0.00068155 | 0.00083517 |   0.0 |  0.02
Modify  | 0.58327    | 0.58657    | 0.59565    |   0.5 | 21.13
Other   |            | 0.006655   |            |       |  0.24

Nlocal:          184.5 ave         195 max         155 min
Histogram: 1 0 0 0 0 0 2 0 1 4
Nghost:        3385.75 ave        3468 max        3298 min
Histogram: 1 0 0 1 2 1 1 1 0 1
Neighs:        71838.5 ave       75416 max       60678 min
Histogram: 1 0 0 0 0 0 2 0 2 3

Total # of neighbors = 574708
Ave neighs/atom = 389.36856
Ave special neighs/atom = 10.252033
Neighbor list builds = 34
Dangerous builds = 0
PPPM initialization ...
  using 12-bit tables for long-range coulomb (src/kspace.cpp:342)
  G vector (1/distance) = 0.26986088
  grid = 12 12 15
  stencil order = 5
  estimated absolute RMS force accuracy = 0.026306157
  estimated relative force accuracy = 7.922021e-05
  using double precision KISS FFT
  3d grid and FFT values/proc = 1573 288
Generated 153 of 153 mixed pair_coeff terms from sixthpower mixing rule
Per MPI rank memory allocation (min/avg/max) = 22.74 | 22.9 | 23.18 Mbytes
   Step          Temp          Press         Density       f_PArxn[1]  
    209401   295.12756     -384.47722      1.23615        102          
    209500   303.59886     -609.62191      1.2304009      102          
    209600   292.40359     -481.47168      1.220765       102          
    209700   303.55541      1721.7599      1.2480937      102          
    209800   300.95815      1527.5634      1.2529061      102          
    209900   302.63936     -2416.2204      1.2439851      102          
    210000   301.1158       451.00455      1.2484158      102          
    210100   300.61267      57.828744      1.2298086      102          
    210200   301.17774      1874.7421      1.241711       102          
    210300   299.02491     -1883.6772      1.2365154      102          
    210400   296.6288       110.42268      1.234605       102          
    210401   294.11947     -212.0397       1.233536       102          
Loop time of 3.26372 on 8 procs for 1000 steps with 1476 atoms

Performance: 26.473 ns/day, 0.907 hours/ns, 306.399 timesteps/s, 452.245 katom-step/s
96.5% CPU use with 8 MPI tasks x no OpenMP threads

MPI task timing breakdown:
Section |  min time  |  avg time  |  max time  |%varavg| %total
---------------------------------------------------------------
Pair    | 0.97055    | 1.1293     | 1.2217     |   6.6 | 34.60
Bond    | 0.072396   | 0.081159   | 0.087434   |   1.4 |  2.49
Kspace  | 1.2016     | 1.297      | 1.465      |   6.4 | 39.74
Neigh   | 0.16382    | 0.16427    | 0.16453    |   0.1 |  5.03
Comm    | 0.037614   | 0.039723   | 0.041792   |   0.9 |  1.22
Output  | 0.00055488 | 0.00061863 | 0.0007405  |   0.0 |  0.02
Modify  | 0.54479    | 0.54658    | 0.54715    |   0.1 | 16.75
Other   |            | 0.005082   |            |       |  0.16

Nlocal:          184.5 ave         198 max         153 min
Histogram: 1 0 0 0 0 1 1 1 2 2
Nghost:         3378.5 ave        3465 max        3298 min
Histogram: 1 1 0 0 3 1 0 1 0 1
Neighs:        71724.9 ave       78033 max       59226 min
Histogram: 1 0 0 0 1 0 1 2 1 2

Total # of neighbors = 573799
Ave neighs/atom = 388.75271
Ave special neighs/atom = 10.252033
Neighbor list builds = 38
Dangerous builds = 0
Resetting atom IDs ...
PPPM initialization ...
  using 12-bit tables for long-range coulomb (src/kspace.cpp:342)
  G vector (1/distance) = 0.26980016
  grid = 12 12 15
  stencil order = 5
  estimated absolute RMS force accuracy = 0.026348167
  estimated relative force accuracy = 7.9346722e-05
  using double precision KISS FFT
  3d grid and FFT values/proc = 1573 288
Generated 153 of 153 mixed pair_coeff terms from sixthpower mixing rule
Finding 1-2 1-3 1-4 neighbors ...
  special bond factors lj:    0        0        0       
  special bond factors coul:  0        0        0       
     3 = max # of 1-2 neighbors
     6 = max # of 1-3 neighbors
    12 = max # of 1-4 neighbors
    14 = max # of special neighbors
  special bonds CPU = 0.003 seconds
==================================Current bonds formed = 102 Minimum bonds desired = 111.6=======================================
==================================NVT PA POLYMERIZATION RUN: 300 C===============================
PPPM initialization ...
  using 12-bit tables for long-range coulomb (src/kspace.cpp:342)
  G vector (1/distance) = 0.26980016
  grid = 12 12 15
  stencil order = 5
  estimated absolute RMS force accuracy = 0.026348167
  estimated relative force accuracy = 7.9346722e-05
  using double precision KISS FFT
  3d grid and FFT values/proc = 1573 288
Generated 153 of 153 mixed pair_coeff terms from sixthpower mixing rule
Per MPI rank memory allocation (min/avg/max) = 22.74 | 22.9 | 23.18 Mbytes
   Step          Temp          Press         Density       f_PArxn[1]  
    210401   300           -146.46887      1.233536       102          
    210500   305.38601     -148.41517      1.233536       102          
    210600   292.7303      -183.74318      1.233536       102          
    210700   310.49514     -1980.8397      1.233536       102          
    210800   305.58842     -1468.2202      1.233536       102          
    210900   300.73786     -360.29336      1.233536       102          
    211000   290.1618      -182.20806      1.233536       102          
    211100   303.10131     -1227.7669      1.233536       102          
    211200   305.26884     -1700.7228      1.233536       102          
    211300   310.73903     -1580.048       1.233536       102          
    211400   316.55195     -4861.0335      1.233536       102          
    211401   315.20022     -4449.4813      1.233536       102          
Loop time of 2.71614 on 8 procs for 1000 steps with 1476 atoms

Performance: 31.810 ns/day, 0.754 hours/ns, 368.170 timesteps/s, 543.418 katom-step/s
96.0% CPU use with 8 MPI tasks x no OpenMP threads

MPI task timing breakdown:
Section |  min time  |  avg time  |  max time  |%varavg| %total
---------------------------------------------------------------
Pair    | 0.73659    | 0.88374    | 0.9505     |   6.9 | 32.54
Bond    | 0.049996   | 0.057336   | 0.062901   |   1.7 |  2.11
Kspace  | 0.97476    | 1.0484     | 1.1954     |   6.4 | 38.60
Neigh   | 0.11079    | 0.11102    | 0.1112     |   0.0 |  4.09
Comm    | 0.037696   | 0.041829   | 0.04674    |   1.7 |  1.54
Output  | 0.0032697  | 0.0033192  | 0.0034345  |   0.1 |  0.12
Modify  | 0.56123    | 0.56654    | 0.57711    |   0.6 | 20.86
Other   |            | 0.003915   |            |       |  0.14

Nlocal:          184.5 ave         197 max         152 min
Histogram: 1 0 0 0 0 0 1 1 3 2
Nghost:        3370.25 ave        3442 max        3279 min
Histogram: 1 0 0 0 2 1 2 0 1 1
Neighs:          71660 ave       75544 max       59025 min
Histogram: 1 0 0 0 0 0 1 1 0 5

Total # of neighbors = 573280
Ave neighs/atom = 388.40108
Ave special neighs/atom = 10.252033
Neighbor list builds = 28
Dangerous builds = 0
