units            real
atom_style       full
dimension        3
newton           off
boundary         p p p
echo             none
Reading data file ...
  orthogonal box = (0 0 0) to (90 90 90)
  2 by 2 by 2 MPI processor grid
  reading atoms ...
  18 atoms
  scanning bonds ...
  3 = max bonds/atom
  scanning angles ...
  9 = max angles/atom
  scanning dihedrals ...
  20 = max dihedrals/atom
  scanning impropers ...
  11 = max impropers/atom
  orthogonal box = (0 0 0) to (90 90 90)
  2 by 2 by 2 MPI processor grid
  reading bonds ...
  18 bonds
  reading angles ...
  27 angles
  reading dihedrals ...
  45 dihedrals
  reading impropers ...
  18 impropers
Finding 1-2 1-3 1-4 neighbors ...
  special bond factors lj:    0        0        0       
  special bond factors coul:  0        0        0       
     3 = max # of 1-2 neighbors
     6 = max # of 1-3 neighbors
    12 = max # of 1-4 neighbors
    14 = max # of special neighbors
  special bonds CPU = 0.000 seconds
  read_data CPU = 0.007 seconds
Displacing atoms ...
WARNING: Ignoring 'compress yes' for molecular system (src/delete_atoms.cpp:141)
Deleted 18 atoms, new total = 0
Changing box ...
  orthogonal box = (0 0 0) to (41.7743 90 90)
  orthogonal box = (0 0 0) to (41.7743 41.7743 90)
  orthogonal box = (0 0 0) to (41.7743 41.7743 41.7743)
Lattice spacing in x,y,z = 11.3 11.3 11.3
Read molecule template MPDmol:
this is a moleule template for: mpd monomer
  1 molecules
  0 fragments
  16 atoms with max type 8
  16 bonds with max type 9
  24 angles with max type 25
  38 dihedrals with max type 9
  21 impropers with max type 9
Read molecule template TMCmol:
this is a molecule template for: whole tmc molecule
  1 molecules
  0 fragments
  18 atoms with max type 18
  18 bonds with max type 18
  27 angles with max type 24
  45 dihedrals with max type 31
  18 impropers with max type 5
Created 480 atoms
  using lattice units in orthogonal box = (0 0 0) to (41.7743 41.7743 41.7743)
  create_atoms CPU = 0.001 seconds
480 atoms in group MPDs
Created 360 atoms
  using lattice units in orthogonal box = (0 0 0) to (41.7743 41.7743 41.7743)
  create_atoms CPU = 0.001 seconds
360 atoms in group TMCs
Number of atoms in TMCs group: 360
System init for delete_atoms ...
PPPM initialization ...
  using 12-bit tables for long-range coulomb (src/kspace.cpp:342)
  G vector (1/distance) = 0.24151373
  grid = 15 15 15
  stencil order = 5
  estimated absolute RMS force accuracy = 0.028251718
  estimated relative force accuracy = 8.507921e-05
  using double precision KISS FFT
  3d grid and FFT values/proc = 2197 512
Generated 153 of 153 mixed pair_coeff terms from sixthpower mixing rule
Neighbor list info ...
  update: every = 1 steps, delay = 0 steps, check = yes
  max neighbors/atom: 2000, page size: 100000
  master list distance cutoff = 11
  ghost atom cutoff = 11
  binsize = 5.5, bins = 8 8 8
  2 neighbor lists, perpetual/occasional/extra = 1 1 0
  (1) command delete_atoms, occasional
      attributes: full, newton off
      pair build: full/bin
      stencil: full/bin/3d
      bin: standard
  (2) pair lj/charmm/coul/long, perpetual
      attributes: half, newton off
      pair build: half/bin/newtoff
      stencil: full/bin/3d
      bin: standard
WARNING: Ignoring 'compress yes' for molecular system (src/delete_atoms.cpp:141)
Deleted 90 atoms, new total = 750
Deleted 90 bonds, new total = 750
Deleted 135 angles, new total = 1125
Deleted 225 dihedrals, new total = 1815
Deleted 90 impropers, new total = 900

CITE-CITE-CITE-CITE-CITE-CITE-CITE-CITE-CITE-CITE-CITE-CITE-CITE

Your simulation uses code contributions which should be cited:

- Type Label Framework: https://doi.org/10.1021/acs.jpcb.3c08419

@Article{Gissinger24,
 author = {Jacob R. Gissinger, Ilia Nikiforov, Yaser Afshar, Brendon Waters, Moon-ki Choi, Daniel S. Karls, Alexander Stukowski, Wonpil Im, Hendrik Heinz, Axel Kohlmeyer, and Ellad B. Tadmor},
 title = {Type Label Framework for Bonded Force Fields in LAMMPS},
 journal = {J. Phys. Chem. B},
 year =    2024,
 volume =  128,
 number =  13,
 pages =   {3282–-3297}
}

CITE-CITE-CITE-CITE-CITE-CITE-CITE-CITE-CITE-CITE-CITE-CITE-CITE

PPPM initialization ...
  using 12-bit tables for long-range coulomb (src/kspace.cpp:342)
  G vector (1/distance) = 0.24151373
  grid = 15 15 15
  stencil order = 5
  estimated absolute RMS force accuracy = 0.024961547
  estimated relative force accuracy = 7.5170958e-05
  using double precision KISS FFT
  3d grid and FFT values/proc = 2197 512
Generated 153 of 153 mixed pair_coeff terms from sixthpower mixing rule
Neighbor list info ...
  update: every = 1 steps, delay = 0 steps, check = yes
  max neighbors/atom: 2000, page size: 100000
  master list distance cutoff = 11
  ghost atom cutoff = 11
  binsize = 5.5, bins = 8 8 8
  1 neighbor lists, perpetual/occasional/extra = 1 0 0
  (1) pair lj/charmm/coul/long, perpetual
      attributes: half, newton off
      pair build: half/bin/newtoff
      stencil: full/bin/3d
      bin: standard
Per MPI rank memory allocation (min/avg/max) = 19.63 | 19.8 | 20.17 Mbytes
   Step          Temp          E_pair         E_mol          TotEng         Press     
         0   0              739657.76      5014.3253      744672.08      2777154.4    
Loop time of 3.7865e-06 on 8 procs for 0 steps with 750 atoms

99.0% CPU use with 8 MPI tasks x no OpenMP threads

MPI task timing breakdown:
Section |  min time  |  avg time  |  max time  |%varavg| %total
---------------------------------------------------------------
Pair    | 0          | 0          | 0          |   0.0 |  0.00
Bond    | 0          | 0          | 0          |   0.0 |  0.00
Kspace  | 0          | 0          | 0          |   0.0 |  0.00
Neigh   | 0          | 0          | 0          |   0.0 |  0.00
Comm    | 0          | 0          | 0          |   0.0 |  0.00
Output  | 0          | 0          | 0          |   0.0 |  0.00
Modify  | 0          | 0          | 0          |   0.0 |  0.00
Other   |            | 3.787e-06  |            |       |100.00

Nlocal:          93.75 ave         138 max          31 min
Histogram: 1 0 0 1 1 0 2 2 0 1
Nghost:         719.75 ave         764 max         688 min
Histogram: 1 1 0 3 1 0 1 0 0 1
Neighs:         4740.5 ave        6648 max        1670 min
Histogram: 1 0 0 2 0 0 1 0 2 2

Total # of neighbors = 37924
Ave neighs/atom = 50.565333
Ave special neighs/atom = 8.64
Neighbor list builds = 0
Dangerous builds = 0
Created 90 atoms
  using lattice units in orthogonal box = (0 0 0) to (41.7743 41.7743 41.7743)
  create_atoms CPU = 0.001 seconds
360 atoms in group TMCs
Number of atoms in TMCs group: 360
System init for delete_atoms ...
PPPM initialization ...
  using 12-bit tables for long-range coulomb (src/kspace.cpp:342)
  G vector (1/distance) = 0.24151373
  grid = 15 15 15
  stencil order = 5
  estimated absolute RMS force accuracy = 0.028251718
  estimated relative force accuracy = 8.507921e-05
  using double precision KISS FFT
  3d grid and FFT values/proc = 2197 512
Generated 153 of 153 mixed pair_coeff terms from sixthpower mixing rule
Neighbor list info ...
  update: every = 1 steps, delay = 0 steps, check = yes
  max neighbors/atom: 2000, page size: 100000
  master list distance cutoff = 11
  ghost atom cutoff = 11
  binsize = 5.5, bins = 8 8 8
  2 neighbor lists, perpetual/occasional/extra = 1 1 0
  (1) command delete_atoms, occasional
      attributes: full, newton off
      pair build: full/bin
      stencil: full/bin/3d
      bin: standard
  (2) pair lj/charmm/coul/long, perpetual
      attributes: half, newton off
      pair build: half/bin/newtoff
      stencil: full/bin/3d
      bin: standard
WARNING: Ignoring 'compress yes' for molecular system (src/delete_atoms.cpp:141)
Deleted 36 atoms, new total = 804
Deleted 36 bonds, new total = 804
Deleted 54 angles, new total = 1206
Deleted 90 dihedrals, new total = 1950
Deleted 36 impropers, new total = 954
PPPM initialization ...
  using 12-bit tables for long-range coulomb (src/kspace.cpp:342)
  G vector (1/distance) = 0.24151373
  grid = 15 15 15
  stencil order = 5
  estimated absolute RMS force accuracy = 0.026969863
  estimated relative force accuracy = 8.1218941e-05
  using double precision KISS FFT
  3d grid and FFT values/proc = 2197 512
Generated 153 of 153 mixed pair_coeff terms from sixthpower mixing rule
Neighbor list info ...
  update: every = 1 steps, delay = 0 steps, check = yes
  max neighbors/atom: 2000, page size: 100000
  master list distance cutoff = 11
  ghost atom cutoff = 11
  binsize = 5.5, bins = 8 8 8
  1 neighbor lists, perpetual/occasional/extra = 1 0 0
  (1) pair lj/charmm/coul/long, perpetual
      attributes: half, newton off
      pair build: half/bin/newtoff
      stencil: full/bin/3d
      bin: standard
Per MPI rank memory allocation (min/avg/max) = 19.63 | 19.85 | 20.3 Mbytes
   Step          Temp          E_pair         E_mol          TotEng         Press     
         0   0              740266.56      5941.2163      746207.78      2778243.3    
Loop time of 2.71875e-06 on 8 procs for 0 steps with 804 atoms

105.7% CPU use with 8 MPI tasks x no OpenMP threads

MPI task timing breakdown:
Section |  min time  |  avg time  |  max time  |%varavg| %total
---------------------------------------------------------------
Pair    | 0          | 0          | 0          |   0.0 |  0.00
Bond    | 0          | 0          | 0          |   0.0 |  0.00
Kspace  | 0          | 0          | 0          |   0.0 |  0.00
Neigh   | 0          | 0          | 0          |   0.0 |  0.00
Comm    | 0          | 0          | 0          |   0.0 |  0.00
Output  | 0          | 0          | 0          |   0.0 |  0.00
Modify  | 0          | 0          | 0          |   0.0 |  0.00
Other   |            | 2.719e-06  |            |       |100.00

Nlocal:          100.5 ave         156 max          31 min
Histogram: 1 0 0 1 1 2 1 0 1 1
Nghost:          772.5 ave         818 max         735 min
Histogram: 1 0 1 2 1 0 2 0 0 1
Neighs:        5287.38 ave        7712 max        1771 min
Histogram: 1 0 0 1 2 0 0 1 1 2

Total # of neighbors = 42299
Ave neighs/atom = 52.610697
Ave special neighs/atom = 8.641791
Neighbor list builds = 0
Dangerous builds = 0
Created 36 atoms
  using lattice units in orthogonal box = (0 0 0) to (41.7743 41.7743 41.7743)
  create_atoms CPU = 0.000 seconds
360 atoms in group TMCs
Number of atoms in TMCs group: 360
System init for delete_atoms ...
PPPM initialization ...
  using 12-bit tables for long-range coulomb (src/kspace.cpp:342)
  G vector (1/distance) = 0.24151373
  grid = 15 15 15
  stencil order = 5
  estimated absolute RMS force accuracy = 0.028251718
  estimated relative force accuracy = 8.507921e-05
  using double precision KISS FFT
  3d grid and FFT values/proc = 2197 512
Generated 153 of 153 mixed pair_coeff terms from sixthpower mixing rule
Neighbor list info ...
  update: every = 1 steps, delay = 0 steps, check = yes
  max neighbors/atom: 2000, page size: 100000
  master list distance cutoff = 11
  ghost atom cutoff = 11
  binsize = 5.5, bins = 8 8 8
  2 neighbor lists, perpetual/occasional/extra = 1 1 0
  (1) command delete_atoms, occasional
      attributes: full, newton off
      pair build: full/bin
      stencil: full/bin/3d
      bin: standard
  (2) pair lj/charmm/coul/long, perpetual
      attributes: half, newton off
      pair build: half/bin/newtoff
      stencil: full/bin/3d
      bin: standard
WARNING: Ignoring 'compress yes' for molecular system (src/delete_atoms.cpp:141)
Deleted 0 atoms, new total = 840
Deleted 0 bonds, new total = 840
Deleted 0 angles, new total = 1260
Deleted 0 dihedrals, new total = 2040
Deleted 0 impropers, new total = 990
PPPM initialization ...
  using 12-bit tables for long-range coulomb (src/kspace.cpp:342)
  G vector (1/distance) = 0.24151373
  grid = 15 15 15
  stencil order = 5
  estimated absolute RMS force accuracy = 0.028251718
  estimated relative force accuracy = 8.507921e-05
  using double precision KISS FFT
  3d grid and FFT values/proc = 2197 512
Generated 153 of 153 mixed pair_coeff terms from sixthpower mixing rule
Neighbor list info ...
  update: every = 1 steps, delay = 0 steps, check = yes
  max neighbors/atom: 2000, page size: 100000
  master list distance cutoff = 11
  ghost atom cutoff = 11
  binsize = 5.5, bins = 8 8 8
  1 neighbor lists, perpetual/occasional/extra = 1 0 0
  (1) pair lj/charmm/coul/long, perpetual
      attributes: half, newton off
      pair build: half/bin/newtoff
      stencil: full/bin/3d
      bin: standard
Per MPI rank memory allocation (min/avg/max) = 19.63 | 19.9 | 20.3 Mbytes
   Step          Temp          E_pair         E_mol          TotEng         Press     
         0   0              742956.44      6559.1437      749515.59      2787808      
Loop time of 2.81762e-06 on 8 procs for 0 steps with 840 atoms

97.6% CPU use with 8 MPI tasks x no OpenMP threads

MPI task timing breakdown:
Section |  min time  |  avg time  |  max time  |%varavg| %total
---------------------------------------------------------------
Pair    | 0          | 0          | 0          |   0.0 |  0.00
Bond    | 0          | 0          | 0          |   0.0 |  0.00
Kspace  | 0          | 0          | 0          |   0.0 |  0.00
Neigh   | 0          | 0          | 0          |   0.0 |  0.00
Comm    | 0          | 0          | 0          |   0.0 |  0.00
Output  | 0          | 0          | 0          |   0.0 |  0.00
Modify  | 0          | 0          | 0          |   0.0 |  0.00
Other   |            | 2.818e-06  |            |       |100.00

Nlocal:            105 ave         165 max          31 min
Histogram: 1 0 0 1 1 3 0 0 0 2
Nghost:         806.25 ave         859 max         762 min
Histogram: 1 0 1 2 1 0 2 0 0 1
Neighs:        5956.62 ave        9297 max        1799 min
Histogram: 1 0 1 2 0 0 0 2 0 2

Total # of neighbors = 47653
Ave neighs/atom = 56.729762
Ave special neighs/atom = 8.6428571
Neighbor list builds = 0
Dangerous builds = 0
Resetting atom IDs ...
PPPM initialization ...
  using 12-bit tables for long-range coulomb (src/kspace.cpp:342)
  G vector (1/distance) = 0.24151373
  grid = 15 15 15
  stencil order = 5
  estimated absolute RMS force accuracy = 0.028251718
  estimated relative force accuracy = 8.507921e-05
  using double precision KISS FFT
  3d grid and FFT values/proc = 2197 512
Generated 153 of 153 mixed pair_coeff terms from sixthpower mixing rule
Finding 1-2 1-3 1-4 neighbors ...
  special bond factors lj:    0        0        0       
  special bond factors coul:  0        0        0       
     3 = max # of 1-2 neighbors
     6 = max # of 1-3 neighbors
    12 = max # of 1-4 neighbors
    14 = max # of special neighbors
  special bonds CPU = 0.002 seconds
PPPM initialization ...
  using 12-bit tables for long-range coulomb (src/kspace.cpp:342)
  G vector (1/distance) = 0.24151373
  grid = 15 15 15
  stencil order = 5
  estimated absolute RMS force accuracy = 0.028251718
  estimated relative force accuracy = 8.507921e-05
  using double precision KISS FFT
  3d grid and FFT values/proc = 2197 512
Generated 153 of 153 mixed pair_coeff terms from sixthpower mixing rule
Per MPI rank memory allocation (min/avg/max) = 20.76 | 21.03 | 21.42 Mbytes
   Step          Temp          E_pair         E_mol          TotEng         Press     
         0   0              742956.44      6559.1437      749515.59      2787808      
       436   0              524.16059      427.69513      951.85572     -41.077641    
Loop time of 0.528955 on 8 procs for 436 steps with 840 atoms

97.3% CPU use with 8 MPI tasks x no OpenMP threads

Minimization stats:
  Stopping criterion = energy tolerance
  Energy initial, next-to-last, final = 
      749515.586381167   951.865157259685   951.855715896747
  Force two-norm initial, final = 8120477 11.954242
  Force max component initial, final = 4123878.1 1.9276816
  Final line search alpha, max atom move = 0.089499601 0.17252673
  Iterations, force evaluations = 436 860

MPI task timing breakdown:
Section |  min time  |  avg time  |  max time  |%varavg| %total
---------------------------------------------------------------
Pair    | 0.026093   | 0.086054   | 0.14053    |  12.5 | 16.27
Bond    | 0.0086063  | 0.028232   | 0.044314   |   6.2 |  5.34
Kspace  | 0.31664    | 0.38788    | 0.46821    |   7.6 | 73.33
Neigh   | 0.00086221 | 0.00088416 | 0.00090621 |   0.0 |  0.17
Comm    | 0.01522    | 0.015952   | 0.016544   |   0.3 |  3.02
Output  | 0          | 0          | 0          |   0.0 |  0.00
Modify  | 0          | 0          | 0          |   0.0 |  0.00
Other   |            | 0.009954   |            |       |  1.88

Nlocal:            105 ave         164 max          30 min
Histogram: 1 0 0 1 1 2 1 0 0 2
Nghost:          807.5 ave         864 max         762 min
Histogram: 1 1 1 1 1 0 2 0 0 1
Neighs:        5964.75 ave        9251 max        1723 min
Histogram: 1 0 0 2 1 0 0 2 0 2

Total # of neighbors = 47718
Ave neighs/atom = 56.807143
Ave special neighs/atom = 8.6428571
Neighbor list builds = 2
Dangerous builds = 0
PPPM initialization ...
  using 12-bit tables for long-range coulomb (src/kspace.cpp:342)
  G vector (1/distance) = 0.24151373
  grid = 15 15 15
  stencil order = 5
  estimated absolute RMS force accuracy = 0.028251718
  estimated relative force accuracy = 8.507921e-05
  using double precision KISS FFT
  3d grid and FFT values/proc = 2197 512
Generated 153 of 153 mixed pair_coeff terms from sixthpower mixing rule
Per MPI rank memory allocation (min/avg/max) = 20.76 | 21.03 | 21.42 Mbytes
   Step          Temp          E_pair         E_mol          TotEng         Press     
       436   0              524.16059      427.69513      951.85572     -41.077641    
      1636   0              169.95903      433.75869      603.71772     -24.151596    
Loop time of 1.68837 on 8 procs for 1200 steps with 840 atoms

97.4% CPU use with 8 MPI tasks x no OpenMP threads

Minimization stats:
  Stopping criterion = linesearch alpha is zero
  Energy initial, next-to-last, final = 
      951.855715896771   603.717720834714   603.717720834714
  Force two-norm initial, final = 11.954242 13.188835
  Force max component initial, final = 1.9276816 2.7084113
  Final line search alpha, max atom move = 7.0141856e-11 1.8997299e-10
  Iterations, force evaluations = 1200 2450

MPI task timing breakdown:
Section |  min time  |  avg time  |  max time  |%varavg| %total
---------------------------------------------------------------
Pair    | 0.03932    | 0.31354    | 0.52121    |  27.4 | 18.57
Bond    | 0.012829   | 0.076032   | 0.11155    |  11.2 |  4.50
Kspace  | 0.96046    | 1.1929     | 1.5278     |  16.6 | 70.65
Neigh   | 0.017317   | 0.017564   | 0.017772   |   0.1 |  1.04
Comm    | 0.044381   | 0.046425   | 0.049034   |   0.9 |  2.75
Output  | 0          | 0          | 0          |   0.0 |  0.00
Modify  | 0          | 0          | 0          |   0.0 |  0.00
Other   |            | 0.04189    |            |       |  2.48

Nlocal:            105 ave         165 max           5 min
Histogram: 1 0 0 0 2 2 0 0 0 3
Nghost:          790.5 ave         893 max         727 min
Histogram: 3 0 0 0 2 2 0 0 0 1
Neighs:        8535.75 ave       14538 max         285 min
Histogram: 1 0 1 0 0 2 1 0 2 1

Total # of neighbors = 68286
Ave neighs/atom = 81.292857
Ave special neighs/atom = 8.6428571
Neighbor list builds = 32
Dangerous builds = 0
System init for write_data ...
PPPM initialization ...
  using 12-bit tables for long-range coulomb (src/kspace.cpp:342)
  G vector (1/distance) = 0.24151373
  grid = 15 15 15
  stencil order = 5
  estimated absolute RMS force accuracy = 0.028251718
  estimated relative force accuracy = 8.507921e-05
  using double precision KISS FFT
  3d grid and FFT values/proc = 2197 512
Generated 153 of 153 mixed pair_coeff terms from sixthpower mixing rule
Read molecule template mol1:
this is a molecule template for: initial mpdtmc crosslink, pre-reacting
  1 molecules
  0 fragments
  20 atoms with max type 18
  18 bonds with max type 18
  24 angles with max type 25
  25 dihedrals with max type 31
  7 impropers with max type 9
Read molecule template mol2:
this is a molecule template for: initial mpdtmc crosslink, post-reacting
  1 molecules
  0 fragments
  20 atoms with max type 18
  17 bonds with max type 13
  24 angles with max type 14
  27 dihedrals with max type 21
  8 impropers with max type 7
60 atoms in group NUM_AMIDE
MAX_BONDS = 60
dynamic group bond_react_MASTER_group defined
dynamic group statted_grp_REACT defined
==================================Current bonds formed = 0 Minimum bonds desired = 55.8=======================================
==================================NVT PA POLYMERIZATION RUN: 300 C===============================

CITE-CITE-CITE-CITE-CITE-CITE-CITE-CITE-CITE-CITE-CITE-CITE-CITE

Your simulation uses code contributions which should be cited:

- fix bond/react: reacter.org doi:10.1016/j.polymer.2017.09.038, doi:10.1021/acs.macromol.0c02012, doi:10.1016/j.cpc.2024.109287

@Article{Gissinger17,
 author = {J. R. Gissinger and B. D. Jensen and K. E. Wise},
 title = {Modeling Chemical Reactions in Classical Molecular Dynamics Simulations},
 journal = {Polymer},
 year =    2017,
 volume =  128,
 pages =   {211--217}
}

@Article{Gissinger20,
 author = {J. R. Gissinger, B. D. Jensen, K. E. Wise},
 title = {{REACTER}: A Heuristic Method for Reactive Molecular Dynamics},
 journal = {Macromolecules},
 year =    2020,
 volume =  53,
 number =  22,
 pages =   {9953--9961}
}

@Article{Gissinger24,
 author = {J. R. Gissinger, B. D. Jensen, K. E. Wise},
 title = {Molecular Modeling of Reactive Systems with REACTER},
 journal = {Computer Physics Communications},
 year =    2024,
 volume =  304,
 number =  109287
}

CITE-CITE-CITE-CITE-CITE-CITE-CITE-CITE-CITE-CITE-CITE-CITE-CITE

PPPM initialization ...
  using 12-bit tables for long-range coulomb (src/kspace.cpp:342)
  G vector (1/distance) = 0.24151373
  grid = 15 15 15
  stencil order = 5
  estimated absolute RMS force accuracy = 0.028251718
  estimated relative force accuracy = 8.507921e-05
  using double precision KISS FFT
  3d grid and FFT values/proc = 2197 512
Generated 153 of 153 mixed pair_coeff terms from sixthpower mixing rule
Neighbor list info ...
  update: every = 1 steps, delay = 0 steps, check = yes
  max neighbors/atom: 2000, page size: 100000
  master list distance cutoff = 11
  ghost atom cutoff = 11
  binsize = 5.5, bins = 8 8 8
  2 neighbor lists, perpetual/occasional/extra = 1 1 0
  (1) pair lj/charmm/coul/long, perpetual
      attributes: half, newton off
      pair build: half/bin/newtoff
      stencil: full/bin/3d
      bin: standard
  (2) fix bond/react, occasional, copy from (1)
      attributes: half, newton off
      pair build: copy
      stencil: none
      bin: none
Per MPI rank memory allocation (min/avg/max) = 20.05 | 20.35 | 20.71 Mbytes
   Step          Temp          Press         Density       f_PArxn[1]  
      1636   300            446.30855      0.19483657     0            
WARNING: System is not charge neutral, net charge = 0.7065 (src/kspace.cpp:327)
      1700   361.53047     -2065.087       0.18154934     16           
      1800   450.42802     -6029.5726      0.16992302     30           
      1900   506.25249     -827.84545      0.16577076     35           
      2000   452.30302     -3528.4337      0.16494031     36           
      2100   406.03628      132.87335      0.16494031     36           
      2200   298.89926     -4763.4315      0.16410985     37           
      2300   315.08104     -33.125426      0.16410985     37           
      2400   288.60104      134.20671      0.16410985     37           
      2500   262.07331     -14.165444      0.16410985     37           
      2600   249.68998     -5289.5472      0.1632794      38           
      2636   279.63606     -883.552        0.1632794      38           
Loop time of 0.790166 on 8 procs for 1000 steps with 764 atoms

Performance: 109.344 ns/day, 0.219 hours/ns, 1265.558 timesteps/s, 966.886 katom-step/s
95.6% CPU use with 8 MPI tasks x no OpenMP threads

MPI task timing breakdown:
Section |  min time  |  avg time  |  max time  |%varavg| %total
---------------------------------------------------------------
Pair    | 0.0022468  | 0.086529   | 0.16381    |  16.8 | 10.95
Bond    | 0.00068899 | 0.028109   | 0.044117   |   8.2 |  3.56
Kspace  | 0.33657    | 0.41574    | 0.50014    |   7.9 | 52.61
Neigh   | 0.03283    | 0.032918   | 0.03304    |   0.0 |  4.17
Comm    | 0.018979   | 0.019541   | 0.019969   |   0.3 |  2.47
Output  | 0.00017162 | 0.00019228 | 0.00032246 |   0.0 |  0.02
Modify  | 0.18951    | 0.20438    | 0.23159    |   2.9 | 25.87
Other   |            | 0.002756   |            |       |  0.35

Nlocal:           95.5 ave         158 max           3 min
Histogram: 1 0 0 0 2 2 0 0 2 1
Nghost:         717.25 ave         818 max         647 min
Histogram: 1 1 1 0 2 2 0 0 0 1
Neighs:         6512.5 ave       10962 max         195 min
Histogram: 1 0 1 1 0 1 1 0 1 2

Total # of neighbors = 52100
Ave neighs/atom = 68.193717
Ave special neighs/atom = 9.8010471
Neighbor list builds = 59
Dangerous builds = 0
PPPM initialization ...
  using 12-bit tables for long-range coulomb (src/kspace.cpp:342)
  G vector (1/distance) = 0.24151373
  grid = 15 15 15
  stencil order = 5
  estimated absolute RMS force accuracy = 0.029416861
  estimated relative force accuracy = 8.8588003e-05
  using double precision KISS FFT
  3d grid and FFT values/proc = 2197 512
Generated 153 of 153 mixed pair_coeff terms from sixthpower mixing rule
WARNING: Inconsistent image flags (src/domain.cpp:1051)
Per MPI rank memory allocation (min/avg/max) = 20.99 | 21.29 | 21.66 Mbytes
   Step          Temp          Press         Density       f_PArxn[1]  
      2636   307.48972     -883.552        0.1632794      38           
      2700   320.25792     -15.399368      0.16958373     38           
      2800   433.49574     -532.97464      0.20123034     39           
      2900   461.72997     -997.09453      0.26152261     40           
      3000   403.27794     -575.74093      0.27419042     40           
      3100   322.91009      391.64324      0.27621733     40           
      3200   285.63992      414.41998      0.28649443     40           
      3300   279.66015      304.35478      0.2961506      40           
      3400   301.13029     -9.709461       0.31613251     40           
      3500   308.68108     -762.54075      0.33326808     40           
      3600   310.28659     -10701.66       0.35489703     41           
      3636   419.45855     -1556.7045      0.41154555     41           
Loop time of 0.961464 on 8 procs for 1000 steps with 758 atoms

Performance: 89.863 ns/day, 0.267 hours/ns, 1040.081 timesteps/s, 788.381 katom-step/s
96.5% CPU use with 8 MPI tasks x no OpenMP threads

MPI task timing breakdown:
Section |  min time  |  avg time  |  max time  |%varavg| %total
---------------------------------------------------------------
Pair    | 0.032226   | 0.14692    | 0.26181    |  17.9 | 15.28
Bond    | 0.01106    | 0.039318   | 0.066293   |   8.0 |  4.09
Kspace  | 0.34522    | 0.49077    | 0.63423    |  12.0 | 51.04
Neigh   | 0.040162   | 0.041194   | 0.042002   |   0.4 |  4.28
Comm    | 0.023593   | 0.025152   | 0.028371   |   1.2 |  2.62
Output  | 0.000159   | 0.00017267 | 0.00025892 |   0.0 |  0.02
Modify  | 0.21271    | 0.214      | 0.21536    |   0.2 | 22.26
Other   |            | 0.003936   |            |       |  0.41

Nlocal:          94.75 ave         168 max          52 min
Histogram: 1 2 1 1 1 1 0 0 0 1
Nghost:        1263.25 ave        1380 max        1111 min
Histogram: 1 0 0 1 0 4 0 0 1 1
Neighs:        12072.2 ave       22835 max        5534 min
Histogram: 1 2 1 0 2 1 0 0 0 1

Total # of neighbors = 96578
Ave neighs/atom = 127.41161
Ave special neighs/atom = 9.9023747
Neighbor list builds = 62
Dangerous builds = 0
Resetting atom IDs ...
PPPM initialization ...
  using 12-bit tables for long-range coulomb (src/kspace.cpp:342)
  G vector (1/distance) = 0.24970808
  grid = 12 12 12
  stencil order = 5
  estimated absolute RMS force accuracy = 0.034086155
  estimated relative force accuracy = 0.00010264944
  using double precision KISS FFT
  3d grid and FFT values/proc = 1331 288
Generated 153 of 153 mixed pair_coeff terms from sixthpower mixing rule
Finding 1-2 1-3 1-4 neighbors ...
  special bond factors lj:    0        0        0       
  special bond factors coul:  0        0        0       
     3 = max # of 1-2 neighbors
     6 = max # of 1-3 neighbors
    12 = max # of 1-4 neighbors
    14 = max # of special neighbors
  special bonds CPU = 0.001 seconds
==================================Current bonds formed = 41 Minimum bonds desired = 55.8=======================================
==================================NVT PA POLYMERIZATION RUN: 300 C===============================
PPPM initialization ...
  using 12-bit tables for long-range coulomb (src/kspace.cpp:342)
  G vector (1/distance) = 0.24970808
  grid = 12 12 12
  stencil order = 5
  estimated absolute RMS force accuracy = 0.034086155
  estimated relative force accuracy = 0.00010264944
  using double precision KISS FFT
  3d grid and FFT values/proc = 1331 288
Generated 153 of 153 mixed pair_coeff terms from sixthpower mixing rule
WARNING: Inconsistent image flags (src/domain.cpp:1051)
Per MPI rank memory allocation (min/avg/max) = 21.02 | 21.32 | 21.7 Mbytes
   Step          Temp          Press         Density       f_PArxn[1]  
      3636   300           -2000.4889      0.41154555     41           
      3700   334.41662     -3049.8651      0.40941996     42           
      3800   373.12449      2477.913       0.40941996     42           
      3900   343.22985      690.55068      0.40941996     42           
      4000   314.11187     -752.07273      0.40941996     42           
      4100   290.3922       1894.0633      0.40941996     42           
      4200   285.69092      513.60607      0.40941996     42           
      4300   293.49541     -10050.47       0.40729438     43           
      4400   356.19294      190.92395      0.40729438     43           
      4500   313.36752     -3063.2699      0.40516879     44           
      4600   358.25679      2494.1449      0.40516879     44           
      4636   322.51997      376.27534      0.40516879     44           
Loop time of 0.829727 on 8 procs for 1000 steps with 752 atoms

Performance: 104.131 ns/day, 0.230 hours/ns, 1205.215 timesteps/s, 906.322 katom-step/s
96.6% CPU use with 8 MPI tasks x no OpenMP threads

MPI task timing breakdown:
Section |  min time  |  avg time  |  max time  |%varavg| %total
---------------------------------------------------------------
Pair    | 0.049676   | 0.13873    | 0.25708    |  16.3 | 16.72
Bond    | 0.01638    | 0.02802    | 0.042402   |   4.6 |  3.38
Kspace  | 0.263      | 0.37758    | 0.46424    |   9.7 | 45.51
Neigh   | 0.0478     | 0.048634   | 0.049      |   0.2 |  5.86
Comm    | 0.02306    | 0.024071   | 0.0253     |   0.5 |  2.90
Output  | 0.00016529 | 0.00017761 | 0.00024375 |   0.0 |  0.02
Modify  | 0.19253    | 0.21002    | 0.22356    |   1.9 | 25.31
Other   |            | 0.002492   |            |       |  0.30

Nlocal:             94 ave         173 max          34 min
Histogram: 1 0 0 4 1 1 0 0 0 1
Nghost:        1263.25 ave        1425 max        1091 min
Histogram: 1 0 0 1 2 2 0 0 1 1
Neighs:        12687.8 ave       24800 max        3828 min
Histogram: 1 0 1 2 2 1 0 0 0 1

Total # of neighbors = 101502
Ave neighs/atom = 134.97606
Ave special neighs/atom = 10.005319
Neighbor list builds = 53
Dangerous builds = 0
PPPM initialization ...
  using 12-bit tables for long-range coulomb (src/kspace.cpp:342)
  G vector (1/distance) = 0.24970816
  grid = 12 12 12
  stencil order = 5
  estimated absolute RMS force accuracy = 0.03420715
  estimated relative force accuracy = 0.00010301382
  using double precision KISS FFT
  3d grid and FFT values/proc = 1331 288
Generated 153 of 153 mixed pair_coeff terms from sixthpower mixing rule
WARNING: Inconsistent image flags (src/domain.cpp:1051)
Per MPI rank memory allocation (min/avg/max) = 21.02 | 21.33 | 21.7 Mbytes
   Step          Temp          Press         Density       f_PArxn[1]  
      4636   325.0967       376.27535      0.40516879     44           
      4700   353.34106      258.41442      0.41490247     44           
      4800   399.75518     -1325.0198      0.49815417     45           
      4900   392.9905      -1071.6754      0.52895993     45           
      5000   363.49101      1191.9405      0.51218615     45           
      5100   351.15736     -12927.956      0.55361993     47           
      5200   443.51749     -1001.5128      0.64839272     47           
      5300   343.33652      463.56739      0.60822857     47           
      5400   287.06538     -491.96649      0.60566591     47           
      5500   270.99363     -10922.418      0.56683648     48           
      5600   355.4864       906.55589      0.66601172     48           
      5636   338.35669      931.52218      0.6718637      48           
Loop time of 1.26666 on 8 procs for 1000 steps with 744 atoms

Performance: 68.211 ns/day, 0.352 hours/ns, 789.475 timesteps/s, 587.369 katom-step/s
96.2% CPU use with 8 MPI tasks x no OpenMP threads

MPI task timing breakdown:
Section |  min time  |  avg time  |  max time  |%varavg| %total
---------------------------------------------------------------
Pair    | 0.099011   | 0.26286    | 0.43434    |  17.8 | 20.75
Bond    | 0.020069   | 0.042032   | 0.062848   |   6.1 |  3.32
Kspace  | 0.39972    | 0.59102    | 0.77388    |  13.4 | 46.66
Neigh   | 0.085819   | 0.086523   | 0.086996   |   0.1 |  6.83
Comm    | 0.026556   | 0.026901   | 0.02759    |   0.2 |  2.12
Output  | 0.00015912 | 0.00017007 | 0.00023646 |   0.0 |  0.01
Modify  | 0.25265    | 0.25444    | 0.25656    |   0.3 | 20.09
Other   |            | 0.002714   |            |       |  0.21

Nlocal:             93 ave         127 max          49 min
Histogram: 1 0 1 0 0 3 0 1 1 1
Nghost:         1750.5 ave        1939 max        1567 min
Histogram: 1 0 0 2 0 4 0 0 0 1
Neighs:        19477.2 ave       27723 max        9869 min
Histogram: 1 0 0 1 1 2 1 1 0 1

Total # of neighbors = 155818
Ave neighs/atom = 209.4328
Ave special neighs/atom = 10.145161
Neighbor list builds = 67
Dangerous builds = 0
Resetting atom IDs ...
PPPM initialization ...
  using 12-bit tables for long-range coulomb (src/kspace.cpp:342)
  G vector (1/distance) = 0.24912906
  grid = 10 10 10
  stencil order = 5
  estimated absolute RMS force accuracy = 0.045769669
  estimated relative force accuracy = 0.000137834
  using double precision KISS FFT
  3d grid and FFT values/proc = 1000 200
Generated 153 of 153 mixed pair_coeff terms from sixthpower mixing rule
Finding 1-2 1-3 1-4 neighbors ...
  special bond factors lj:    0        0        0       
  special bond factors coul:  0        0        0       
     3 = max # of 1-2 neighbors
     6 = max # of 1-3 neighbors
    12 = max # of 1-4 neighbors
    14 = max # of special neighbors
  special bonds CPU = 0.000 seconds
==================================Current bonds formed = 48 Minimum bonds desired = 55.8=======================================
==================================NVT PA POLYMERIZATION RUN: 300 C===============================
PPPM initialization ...
  using 12-bit tables for long-range coulomb (src/kspace.cpp:342)
  G vector (1/distance) = 0.24912906
  grid = 10 10 10
  stencil order = 5
  estimated absolute RMS force accuracy = 0.045769669
  estimated relative force accuracy = 0.000137834
  using double precision KISS FFT
  3d grid and FFT values/proc = 1000 200
Generated 153 of 153 mixed pair_coeff terms from sixthpower mixing rule
WARNING: Inconsistent image flags (src/domain.cpp:1051)
Per MPI rank memory allocation (min/avg/max) = 21.07 | 21.39 | 21.72 Mbytes
   Step          Temp          Press         Density       f_PArxn[1]  
      5636   300            679.3103       0.6718637      48           
      5700   308.17522     -89.861185      0.6718637      48           
      5800   303.54968     -6388.1313      0.6718637      48           
      5900   308.11273     -1059.2545      0.6718637      48           
      6000   299.40507      1045.4802      0.6718637      48           
      6100   315.34809     -2393.1997      0.6718637      48           
      6200   295.58623      2271.9806      0.6718637      48           
      6300   297.75038     -498.22225      0.6718637      48           
      6400   296.45076      1073.0701      0.6718637      48           
      6500   343.32399     -5414.6842      0.66826344     49           
      6600   363.58029     -1086.6586      0.66826344     49           
      6636   339.1313       81.865168      0.66826344     49           
Loop time of 1.11818 on 8 procs for 1000 steps with 742 atoms

Performance: 77.269 ns/day, 0.311 hours/ns, 894.312 timesteps/s, 663.579 katom-step/s
96.1% CPU use with 8 MPI tasks x no OpenMP threads

MPI task timing breakdown:
Section |  min time  |  avg time  |  max time  |%varavg| %total
---------------------------------------------------------------
Pair    | 0.15038    | 0.23246    | 0.33795    |  12.2 | 20.79
Bond    | 0.020049   | 0.028508   | 0.039403   |   3.7 |  2.55
Kspace  | 0.33879    | 0.44469    | 0.53037    |   9.0 | 39.77
Neigh   | 0.066652   | 0.066815   | 0.066915   |   0.0 |  5.98
Comm    | 0.026387   | 0.027354   | 0.028237   |   0.4 |  2.45
Output  | 0.00018225 | 0.00020326 | 0.000344   |   0.0 |  0.02
Modify  | 0.30426    | 0.31568    | 0.32241    |   1.0 | 28.23
Other   |            | 0.002468   |            |       |  0.22

Nlocal:          92.75 ave         134 max          59 min
Histogram: 1 1 1 1 1 1 0 0 1 1
Nghost:        1749.38 ave        1865 max        1577 min
Histogram: 1 0 0 2 1 0 0 1 1 2
Neighs:        19849.5 ave       27768 max       13050 min
Histogram: 1 0 1 2 2 0 0 0 1 1

Total # of neighbors = 158796
Ave neighs/atom = 214.01078
Ave special neighs/atom = 10.180593
Neighbor list builds = 40
Dangerous builds = 0
PPPM initialization ...
  using 12-bit tables for long-range coulomb (src/kspace.cpp:342)
  G vector (1/distance) = 0.24912937
  grid = 10 10 10
  stencil order = 5
  estimated absolute RMS force accuracy = 0.04583456
  estimated relative force accuracy = 0.00013802942
  using double precision KISS FFT
  3d grid and FFT values/proc = 1000 200
Generated 153 of 153 mixed pair_coeff terms from sixthpower mixing rule
WARNING: Inconsistent image flags (src/domain.cpp:1051)
Per MPI rank memory allocation (min/avg/max) = 21.07 | 21.39 | 21.72 Mbytes
   Step          Temp          Press         Density       f_PArxn[1]  
      6636   340.04663      81.865204      0.66826344     49           
      6700   312.92682     -787.20947      0.65606477     49           
      6800   300.84934      730.17088      0.64752279     49           
      6900   307.54833      379.0442       0.6153017      49           
      7000   297.03821      243.90252      0.60859037     49           
      7100   300.28459     -950.56609      0.62601548     49           
      7200   293.20293      578.56726      0.6551056      49           
      7300   298.14589      1225.0806      0.67501075     49           
      7400   307.93535      524.17213      0.6825808      49           
      7500   319.99973      353.77368      0.68625601     49           
      7600   303.7192      -438.44091      0.70741213     49           
      7636   297.58863      1317.2194      0.71717792     49           
Loop time of 1.33861 on 8 procs for 1000 steps with 742 atoms

Performance: 64.544 ns/day, 0.372 hours/ns, 747.041 timesteps/s, 554.304 katom-step/s
96.5% CPU use with 8 MPI tasks x no OpenMP threads

MPI task timing breakdown:
Section |  min time  |  avg time  |  max time  |%varavg| %total
---------------------------------------------------------------
Pair    | 0.16735    | 0.3033     | 0.42627    |  15.1 | 22.66
Bond    | 0.023544   | 0.040768   | 0.054992   |   5.0 |  3.05
Kspace  | 0.41937    | 0.55541    | 0.70721    |  12.4 | 41.49
Neigh   | 0.068413   | 0.068539   | 0.068701   |   0.0 |  5.12
Comm    | 0.025394   | 0.027185   | 0.028786   |   0.8 |  2.03
Output  | 0.000167   | 0.00018116 | 0.00026483 |   0.0 |  0.01
Modify  | 0.33974    | 0.34011    | 0.34043    |   0.0 | 25.41
Other   |            | 0.003116   |            |       |  0.23

Nlocal:          92.75 ave         134 max          53 min
Histogram: 1 0 2 0 1 1 1 1 0 1
Nghost:        1858.75 ave        2039 max        1664 min
Histogram: 2 0 0 0 2 1 1 0 0 2
Neighs:        21486.6 ave       31416 max       12288 min
Histogram: 1 1 1 0 0 2 1 1 0 1

Total # of neighbors = 171893
Ave neighs/atom = 231.66173
Ave special neighs/atom = 10.180593
Neighbor list builds = 48
Dangerous builds = 0
Resetting atom IDs ...
PPPM initialization ...
  using 12-bit tables for long-range coulomb (src/kspace.cpp:342)
  G vector (1/distance) = 0.25125226
  grid = 10 10 10
  stencil order = 5
  estimated absolute RMS force accuracy = 0.043571309
  estimated relative force accuracy = 0.0001312137
  using double precision KISS FFT
  3d grid and FFT values/proc = 1000 200
Generated 153 of 153 mixed pair_coeff terms from sixthpower mixing rule
Finding 1-2 1-3 1-4 neighbors ...
  special bond factors lj:    0        0        0       
  special bond factors coul:  0        0        0       
     3 = max # of 1-2 neighbors
     6 = max # of 1-3 neighbors
    12 = max # of 1-4 neighbors
    14 = max # of special neighbors
  special bonds CPU = 0.000 seconds
==================================Current bonds formed = 49 Minimum bonds desired = 55.8=======================================
==================================NVT PA POLYMERIZATION RUN: 300 C===============================
PPPM initialization ...
  using 12-bit tables for long-range coulomb (src/kspace.cpp:342)
  G vector (1/distance) = 0.25125226
  grid = 10 10 10
  stencil order = 5
  estimated absolute RMS force accuracy = 0.043571309
  estimated relative force accuracy = 0.0001312137
  using double precision KISS FFT
  3d grid and FFT values/proc = 1000 200
Generated 153 of 153 mixed pair_coeff terms from sixthpower mixing rule
WARNING: Inconsistent image flags (src/domain.cpp:1051)
Per MPI rank memory allocation (min/avg/max) = 21.07 | 21.39 | 21.72 Mbytes
   Step          Temp          Press         Density       f_PArxn[1]  
      7636   300            1333.2038      0.71717792     49           
      7700   291.12605      878.99669      0.71717792     49           
      7800   309.49591     -2563.2931      0.71717792     49           
      7900   298.68016     -21555.072      0.71331413     50           
      8000   402.95683     -1921.0854      0.71331413     50           
      8100   323.0523      -548.78883      0.71331413     50           
      8200   320.30852     -353.32818      0.71331413     50           
      8300   298.44152     -2359.821       0.71331413     50           
      8400   276.91163     -2089.1151      0.71331413     50           
      8500   291.60534     -267.99074      0.71331413     50           
      8600   300.54753     -1724.5273      0.71331413     50           
      8636   308.61242     -734.16523      0.71331413     50           
Loop time of 1.18743 on 8 procs for 1000 steps with 740 atoms

Performance: 72.762 ns/day, 0.330 hours/ns, 842.156 timesteps/s, 623.196 katom-step/s
95.8% CPU use with 8 MPI tasks x no OpenMP threads

MPI task timing breakdown:
Section |  min time  |  avg time  |  max time  |%varavg| %total
---------------------------------------------------------------
Pair    | 0.15928    | 0.25421    | 0.34562    |  11.4 | 21.41
Bond    | 0.01784    | 0.028033   | 0.037322   |   3.6 |  2.36
Kspace  | 0.36836    | 0.4597     | 0.55449    |   8.5 | 38.71
Neigh   | 0.065469   | 0.066452   | 0.066786   |   0.2 |  5.60
Comm    | 0.027171   | 0.028645   | 0.029808   |   0.5 |  2.41
Output  | 0.00016629 | 0.00018263 | 0.00027221 |   0.0 |  0.02
Modify  | 0.33912    | 0.34765    | 0.35645    |   0.9 | 29.28
Other   |            | 0.002552   |            |       |  0.21

Nlocal:           92.5 ave         126 max          70 min
Histogram: 1 1 1 0 3 1 0 0 0 1
Nghost:        1860.38 ave        2025 max        1696 min
Histogram: 2 0 0 0 2 2 0 0 1 1
Neighs:        21499.4 ave       29952 max       15957 min
Histogram: 2 0 0 3 1 1 0 0 0 1

Total # of neighbors = 171995
Ave neighs/atom = 232.42568
Ave special neighs/atom = 10.216216
Neighbor list builds = 44
Dangerous builds = 0
PPPM initialization ...
  using 12-bit tables for long-range coulomb (src/kspace.cpp:342)
  G vector (1/distance) = 0.25125226
  grid = 10 10 10
  stencil order = 5
  estimated absolute RMS force accuracy = 0.043617623
  estimated relative force accuracy = 0.00013135318
  using double precision KISS FFT
  3d grid and FFT values/proc = 1000 200
Generated 153 of 153 mixed pair_coeff terms from sixthpower mixing rule
WARNING: Inconsistent image flags (src/domain.cpp:1051)
Per MPI rank memory allocation (min/avg/max) = 21.08 | 21.39 | 21.72 Mbytes
   Step          Temp          Press         Density       f_PArxn[1]  
      8636   309.44764     -734.16523      0.71331413     50           
      8700   311.16325     -1429.0821      0.72000301     50           
      8800   300.00127     -1653.1481      0.73430709     50           
      8900   291.67933      667.52378      0.76917515     50           
      9000   298.57897      737.6163       0.76014878     50           
      9100   308.09967     -180.16877      0.75766153     50           
      9200   301.16512     -1582.8286      0.80100498     50           
      9300   293.77393      1114.9614      0.79678468     50           
      9400   305.34393     -1747.7125      0.81673991     50           
      9500   302.68651     -974.62586      0.82868352     50           
      9600   300.69991     -934.09079      0.83550965     50           
      9636   289.82503     -1535.6611      0.8311799      50           
Loop time of 1.46169 on 8 procs for 1000 steps with 740 atoms

Performance: 59.110 ns/day, 0.406 hours/ns, 684.138 timesteps/s, 506.262 katom-step/s
96.2% CPU use with 8 MPI tasks x no OpenMP threads

MPI task timing breakdown:
Section |  min time  |  avg time  |  max time  |%varavg| %total
---------------------------------------------------------------
Pair    | 0.28309    | 0.35819    | 0.51639    |  11.2 | 24.51
Bond    | 0.035648   | 0.042094   | 0.055518   |   2.7 |  2.88
Kspace  | 0.42299    | 0.59196    | 0.66951    |   9.1 | 40.50
Neigh   | 0.052174   | 0.053143   | 0.053841   |   0.3 |  3.64
Comm    | 0.026424   | 0.029801   | 0.034865   |   1.8 |  2.04
Output  | 0.00018467 | 0.00019813 | 0.00027346 |   0.0 |  0.01
Modify  | 0.38342    | 0.3836     | 0.38371    |   0.0 | 26.24
Other   |            | 0.00271    |            |       |  0.19

Nlocal:           92.5 ave         129 max          71 min
Histogram: 1 1 2 1 1 1 0 0 0 1
Nghost:        2059.25 ave        2282 max        1882 min
Histogram: 2 0 0 2 0 2 0 1 0 1
Neighs:        25094.9 ave       36074 max       19072 min
Histogram: 1 2 1 1 2 0 0 0 0 1

Total # of neighbors = 200759
Ave neighs/atom = 271.29595
Ave special neighs/atom = 10.216216
Neighbor list builds = 36
Dangerous builds = 0
Resetting atom IDs ...
PPPM initialization ...
  using 12-bit tables for long-range coulomb (src/kspace.cpp:342)
  G vector (1/distance) = 0.25582405
  grid = 10 10 10
  stencil order = 5
  estimated absolute RMS force accuracy = 0.039022499
  estimated relative force accuracy = 0.0001175151
  using double precision KISS FFT
  3d grid and FFT values/proc = 1000 200
Generated 153 of 153 mixed pair_coeff terms from sixthpower mixing rule
Finding 1-2 1-3 1-4 neighbors ...
  special bond factors lj:    0        0        0       
  special bond factors coul:  0        0        0       
     3 = max # of 1-2 neighbors
     6 = max # of 1-3 neighbors
    12 = max # of 1-4 neighbors
    14 = max # of special neighbors
  special bonds CPU = 0.000 seconds
==================================Current bonds formed = 50 Minimum bonds desired = 55.8=======================================
==================================NVT PA POLYMERIZATION RUN: 300 C===============================
PPPM initialization ...
  using 12-bit tables for long-range coulomb (src/kspace.cpp:342)
  G vector (1/distance) = 0.25582405
  grid = 10 10 10
  stencil order = 5
  estimated absolute RMS force accuracy = 0.039022499
  estimated relative force accuracy = 0.0001175151
  using double precision KISS FFT
  3d grid and FFT values/proc = 1000 200
Generated 153 of 153 mixed pair_coeff terms from sixthpower mixing rule
WARNING: Inconsistent image flags (src/domain.cpp:1051)
Per MPI rank memory allocation (min/avg/max) = 21.08 | 21.43 | 21.73 Mbytes
   Step          Temp          Press         Density       f_PArxn[1]  
      9636   300           -1459.6491      0.8311799      50           
      9700   298.29352     -577.95745      0.8311799      50           
      9800   299.59746      154.22453      0.8311799      50           
      9900   323.70103      3036.0994      0.8311799      50           
     10000   296.83755     -972.9543       0.8311799      50           
     10100   295.98829      60.892746      0.8311799      50           
     10200   305.92177     -32.546137      0.8311799      50           
     10300   303.67761     -2032.6723      0.8311799      50           
     10400   310.1221       362.10195      0.8311799      50           
     10500   304.19137      745.38008      0.8311799      50           
     10600   303.62994     -461.01237      0.8311799      50           
     10636   302.648       -977.22467      0.8311799      50           
Loop time of 1.26611 on 8 procs for 1000 steps with 740 atoms

Performance: 68.240 ns/day, 0.352 hours/ns, 789.818 timesteps/s, 584.465 katom-step/s
96.1% CPU use with 8 MPI tasks x no OpenMP threads

MPI task timing breakdown:
Section |  min time  |  avg time  |  max time  |%varavg| %total
---------------------------------------------------------------
Pair    | 0.2556     | 0.29542    | 0.3742     |   7.0 | 23.33
Bond    | 0.025337   | 0.028715   | 0.033475   |   1.8 |  2.27
Kspace  | 0.38167    | 0.45843    | 0.49772    |   5.5 | 36.21
Neigh   | 0.048146   | 0.048715   | 0.04918    |   0.2 |  3.85
Comm    | 0.030534   | 0.031085   | 0.032009   |   0.3 |  2.46
Output  | 0.00017275 | 0.00018368 | 0.00024308 |   0.0 |  0.01
Modify  | 0.39379    | 0.39977    | 0.40391    |   0.5 | 31.57
Other   |            | 0.003795   |            |       |  0.30

Nlocal:           92.5 ave         113 max          80 min
Histogram: 2 1 0 2 1 0 1 0 0 1
Nghost:        2067.38 ave        2208 max        1966 min
Histogram: 2 0 1 1 1 1 1 0 0 1
Neighs:        24964.8 ave       30270 max       21874 min
Histogram: 2 1 2 0 0 1 1 0 0 1

Total # of neighbors = 199718
Ave neighs/atom = 269.88919
Ave special neighs/atom = 10.216216
Neighbor list builds = 28
Dangerous builds = 0
PPPM initialization ...
  using 12-bit tables for long-range coulomb (src/kspace.cpp:342)
  G vector (1/distance) = 0.25582405
  grid = 10 10 10
  stencil order = 5
  estimated absolute RMS force accuracy = 0.039022499
  estimated relative force accuracy = 0.0001175151
  using double precision KISS FFT
  3d grid and FFT values/proc = 1000 200
Generated 153 of 153 mixed pair_coeff terms from sixthpower mixing rule
WARNING: Inconsistent image flags (src/domain.cpp:1051)
Per MPI rank memory allocation (min/avg/max) = 21.08 | 21.45 | 21.73 Mbytes
   Step          Temp          Press         Density       f_PArxn[1]  
     10636   302.648       -977.22467      0.8311799      50           
     10700   295.28119      531.29723      0.84963869     50           
     10800   293.15446      1254.5866      0.87481367     50           
     10900   291.94026      3100.5573      0.88161242     50           
     11000   280.92649     -355.66528      0.90152585     50           
     11100   294.83755     -2053.8883      0.89919121     50           
     11200   303.49261      3319.4537      0.91540455     50           
     11300   298.18618     -1584.6468      0.8649006      50           
     11400   290.14575      1812.7537      0.90146615     50           
     11500   300.62614     -1352.4152      0.90403228     50           
     11600   288.98228      1036.3956      0.90693912     50           
     11636   304.03253      1181.084       0.91462872     50           
Loop time of 1.52464 on 8 procs for 1000 steps with 740 atoms

Performance: 56.669 ns/day, 0.424 hours/ns, 655.893 timesteps/s, 485.361 katom-step/s
96.7% CPU use with 8 MPI tasks x no OpenMP threads

MPI task timing breakdown:
Section |  min time  |  avg time  |  max time  |%varavg| %total
---------------------------------------------------------------
Pair    | 0.34393    | 0.40043    | 0.48194    |   7.7 | 26.26
Bond    | 0.035277   | 0.04041    | 0.04692    |   2.0 |  2.65
Kspace  | 0.50024    | 0.58777    | 0.65078    |   6.8 | 38.55
Neigh   | 0.049515   | 0.049596   | 0.049649   |   0.0 |  3.25
Comm    | 0.029408   | 0.030041   | 0.031534   |   0.5 |  1.97
Output  | 0.00016879 | 0.00018217 | 0.00026183 |   0.0 |  0.01
Modify  | 0.41189    | 0.41305    | 0.41383    |   0.1 | 27.09
Other   |            | 0.003167   |            |       |  0.21

Nlocal:           92.5 ave         109 max          81 min
Histogram: 1 2 2 0 0 1 0 0 0 2
Nghost:        2199.88 ave        2331 max        2069 min
Histogram: 1 0 2 0 2 0 1 0 1 1
Neighs:        27451.4 ave       32765 max       22963 min
Histogram: 1 1 1 2 0 0 1 0 0 2

Total # of neighbors = 219611
Ave neighs/atom = 296.77162
Ave special neighs/atom = 10.216216
Neighbor list builds = 31
Dangerous builds = 0
Resetting atom IDs ...
PPPM initialization ...
  using 12-bit tables for long-range coulomb (src/kspace.cpp:342)
  G vector (1/distance) = 0.25866605
  grid = 10 10 10
  stencil order = 5
  estimated absolute RMS force accuracy = 0.036361649
  estimated relative force accuracy = 0.00010950202
  using double precision KISS FFT
  3d grid and FFT values/proc = 1000 200
Generated 153 of 153 mixed pair_coeff terms from sixthpower mixing rule
Finding 1-2 1-3 1-4 neighbors ...
  special bond factors lj:    0        0        0       
  special bond factors coul:  0        0        0       
     3 = max # of 1-2 neighbors
     6 = max # of 1-3 neighbors
    12 = max # of 1-4 neighbors
    14 = max # of special neighbors
  special bonds CPU = 0.000 seconds
==================================Current bonds formed = 50 Minimum bonds desired = 55.8=======================================
==================================NVT PA POLYMERIZATION RUN: 300 C===============================
PPPM initialization ...
  using 12-bit tables for long-range coulomb (src/kspace.cpp:342)
  G vector (1/distance) = 0.25866605
  grid = 10 10 10
  stencil order = 5
  estimated absolute RMS force accuracy = 0.036361649
  estimated relative force accuracy = 0.00010950202
  using double precision KISS FFT
  3d grid and FFT values/proc = 1000 200
Generated 153 of 153 mixed pair_coeff terms from sixthpower mixing rule
WARNING: Inconsistent image flags (src/domain.cpp:1051)
Per MPI rank memory allocation (min/avg/max) = 21.13 | 21.51 | 21.78 Mbytes
   Step          Temp          Press         Density       f_PArxn[1]  
     11636   300            1147.8112      0.91462872     50           
     11700   296.36486      517.20198      0.91462872     50           
     11800   313.7374      -1410.347       0.91462872     50           
     11900   312.19332      4067.6281      0.91462872     50           
     12000   302.56129      443.42704      0.91462872     50           
     12100   295.05614     -187.2578       0.91462872     50           
     12200   294.88671     -211.05733      0.91462872     50           
     12300   297.56307     -1855.3025      0.91462872     50           
     12400   308.11776     -724.13887      0.91462872     50           
     12500   291.17498     -3150.7357      0.91462872     50           
     12600   311.98332     -1805.2879      0.91462872     50           
     12636   310.90648     -371.63511      0.91462872     50           
Loop time of 1.33633 on 8 procs for 1000 steps with 740 atoms

Performance: 64.654 ns/day, 0.371 hours/ns, 748.316 timesteps/s, 553.754 katom-step/s
96.4% CPU use with 8 MPI tasks x no OpenMP threads

MPI task timing breakdown:
Section |  min time  |  avg time  |  max time  |%varavg| %total
---------------------------------------------------------------
Pair    | 0.26385    | 0.32391    | 0.39732    |   8.4 | 24.24
Bond    | 0.023775   | 0.028185   | 0.033333   |   1.9 |  2.11
Kspace  | 0.43095    | 0.50484    | 0.56081    |   6.5 | 37.78
Neigh   | 0.047624   | 0.047692   | 0.047798   |   0.0 |  3.57
Comm    | 0.027329   | 0.028574   | 0.029285   |   0.4 |  2.14
Output  | 0.000169   | 0.00018312 | 0.00025138 |   0.0 |  0.01
Modify  | 0.39204    | 0.40047    | 0.40501    |   0.6 | 29.97
Other   |            | 0.002476   |            |       |  0.19

Nlocal:           92.5 ave         111 max          77 min
Histogram: 2 0 0 1 3 0 0 0 0 2
Nghost:        2205.12 ave        2348 max        2088 min
Histogram: 2 0 1 1 1 1 0 0 0 2
Neighs:        27804.4 ave       33794 max       22147 min
Histogram: 1 1 0 2 1 1 0 0 0 2

Total # of neighbors = 222435
Ave neighs/atom = 300.58784
Ave special neighs/atom = 10.216216
Neighbor list builds = 28
Dangerous builds = 0
PPPM initialization ...
  using 12-bit tables for long-range coulomb (src/kspace.cpp:342)
  G vector (1/distance) = 0.25866605
  grid = 10 10 10
  stencil order = 5
  estimated absolute RMS force accuracy = 0.036361649
  estimated relative force accuracy = 0.00010950202
  using double precision KISS FFT
  3d grid and FFT values/proc = 1000 200
Generated 153 of 153 mixed pair_coeff terms from sixthpower mixing rule
WARNING: Inconsistent image flags (src/domain.cpp:1051)
Per MPI rank memory allocation (min/avg/max) = 21.13 | 21.51 | 21.78 Mbytes
   Step          Temp          Press         Density       f_PArxn[1]  
     12636   310.90648     -371.63511      0.91462872     50           
     12700   303.63048      206.51932      0.91551107     50           
     12800   289.91868      3612.2713      0.92721512     50           
     12900   289.9049      -1949.1516      0.92508125     50           
     13000   290.99685     -277.50495      0.92542072     50           
     13100   295.57969      2012.6832      0.90672474     50           
     13200   309.2311       1185.4177      0.91455184     50           
     13300   318.38775      1196.3333      0.93174889     50           
     13400   294.71345      142.09821      0.92989028     50           
     13500   304.89861      175.75586      0.93611207     50           
     13600   299.57504      1582.2981      0.94517522     50           
     13636   307.10972      176.61404      0.9562383      50           
Loop time of 1.59133 on 8 procs for 1000 steps with 740 atoms

Performance: 54.294 ns/day, 0.442 hours/ns, 628.403 timesteps/s, 465.018 katom-step/s
96.6% CPU use with 8 MPI tasks x no OpenMP threads

MPI task timing breakdown:
Section |  min time  |  avg time  |  max time  |%varavg| %total
---------------------------------------------------------------
Pair    | 0.35383    | 0.42847    | 0.57402    |  10.5 | 26.93
Bond    | 0.036343   | 0.040873   | 0.049027   |   2.1 |  2.57
Kspace  | 0.4823     | 0.63545    | 0.71292    |   9.2 | 39.93
Neigh   | 0.051486   | 0.051715   | 0.051983   |   0.1 |  3.25
Comm    | 0.027743   | 0.028647   | 0.03022    |   0.5 |  1.80
Output  | 0.00016746 | 0.00017861 | 0.00024533 |   0.0 |  0.01
Modify  | 0.40111    | 0.40221    | 0.4036     |   0.1 | 25.27
Other   |            | 0.003788   |            |       |  0.24

Nlocal:           92.5 ave         112 max          73 min
Histogram: 1 0 0 2 2 0 1 1 0 1
Nghost:        2259.88 ave        2408 max        2124 min
Histogram: 1 1 1 0 2 0 0 2 0 1
Neighs:        28801.6 ave       36127 max       21773 min
Histogram: 1 0 2 0 2 0 0 2 0 1

Total # of neighbors = 230413
Ave neighs/atom = 311.36892
Ave special neighs/atom = 10.216216
Neighbor list builds = 31
Dangerous builds = 0
Resetting atom IDs ...
PPPM initialization ...
  using 12-bit tables for long-range coulomb (src/kspace.cpp:342)
  G vector (1/distance) = 0.25998148
  grid = 10 10 10
  stencil order = 5
  estimated absolute RMS force accuracy = 0.035179905
  estimated relative force accuracy = 0.00010594324
  using double precision KISS FFT
  3d grid and FFT values/proc = 1000 200
Generated 153 of 153 mixed pair_coeff terms from sixthpower mixing rule
Finding 1-2 1-3 1-4 neighbors ...
  special bond factors lj:    0        0        0       
  special bond factors coul:  0        0        0       
     3 = max # of 1-2 neighbors
     6 = max # of 1-3 neighbors
    12 = max # of 1-4 neighbors
    14 = max # of special neighbors
  special bonds CPU = 0.001 seconds
==================================Current bonds formed = 50 Minimum bonds desired = 55.8=======================================
==================================NVT PA POLYMERIZATION RUN: 300 C===============================
PPPM initialization ...
  using 12-bit tables for long-range coulomb (src/kspace.cpp:342)
  G vector (1/distance) = 0.25998148
  grid = 10 10 10
  stencil order = 5
  estimated absolute RMS force accuracy = 0.035179905
  estimated relative force accuracy = 0.00010594324
  using double precision KISS FFT
  3d grid and FFT values/proc = 1000 200
Generated 153 of 153 mixed pair_coeff terms from sixthpower mixing rule
WARNING: Inconsistent image flags (src/domain.cpp:1051)
Per MPI rank memory allocation (min/avg/max) = 21.13 | 21.51 | 21.78 Mbytes
   Step          Temp          Press         Density       f_PArxn[1]  
     13636   300            115.14917      0.9562383      50           
     13700   289.29375     -1744.0866      0.9562383      50           
     13800   314.42672      1257.8814      0.9562383      50           
     13900   316.67404     -1134.6876      0.9562383      50           
     14000   305.97773      1564.8314      0.9562383      50           
     14100   293.98936     -3552.0979      0.9562383      50           
     14200   293.89238     -471.58983      0.9562383      50           
     14300   297.95222     -1695.0035      0.9562383      50           
     14400   297.08922      899.14626      0.9562383      50           
     14500   305.27256     -413.01908      0.9562383      50           
     14600   309.54413     -363.08037      0.9562383      50           
     14636   305.07225     -1539.3068      0.9562383      50           
Loop time of 1.36499 on 8 procs for 1000 steps with 740 atoms

Performance: 63.297 ns/day, 0.379 hours/ns, 732.608 timesteps/s, 542.130 katom-step/s
96.8% CPU use with 8 MPI tasks x no OpenMP threads

MPI task timing breakdown:
Section |  min time  |  avg time  |  max time  |%varavg| %total
---------------------------------------------------------------
Pair    | 0.25527    | 0.33478    | 0.43472    |   9.8 | 24.53
Bond    | 0.023647   | 0.027972   | 0.03541    |   2.3 |  2.05
Kspace  | 0.39373    | 0.49612    | 0.57511    |   8.2 | 36.35
Neigh   | 0.05934    | 0.059555   | 0.060145   |   0.1 |  4.36
Comm    | 0.02808    | 0.029103   | 0.029754   |   0.4 |  2.13
Output  | 0.00016867 | 0.00018443 | 0.00026958 |   0.0 |  0.01
Modify  | 0.40973    | 0.41469    | 0.41948    |   0.5 | 30.38
Other   |            | 0.00258    |            |       |  0.19

Nlocal:           92.5 ave         110 max          71 min
Histogram: 1 0 1 1 0 2 0 1 1 1
Nghost:        2269.62 ave        2448 max        2085 min
Histogram: 1 0 2 0 1 1 0 1 1 1
Neighs:        28955.8 ave       35925 max       21098 min
Histogram: 1 0 1 1 0 2 0 1 1 1

Total # of neighbors = 231646
Ave neighs/atom = 313.03514
Ave special neighs/atom = 10.216216
Neighbor list builds = 32
Dangerous builds = 0
PPPM initialization ...
  using 12-bit tables for long-range coulomb (src/kspace.cpp:342)
  G vector (1/distance) = 0.25998148
  grid = 10 10 10
  stencil order = 5
  estimated absolute RMS force accuracy = 0.035179905
  estimated relative force accuracy = 0.00010594324
  using double precision KISS FFT
  3d grid and FFT values/proc = 1000 200
Generated 153 of 153 mixed pair_coeff terms from sixthpower mixing rule
WARNING: Inconsistent image flags (src/domain.cpp:1051)
Per MPI rank memory allocation (min/avg/max) = 21.13 | 21.51 | 21.78 Mbytes
   Step          Temp          Press         Density       f_PArxn[1]  
     14636   305.07225     -1539.3068      0.9562383      50           
     14700   301.71432     -98.548782      0.94163557     50           
     14800   303.03523     -1046.7278      0.94805296     50           
     14900   291.62771     -661.48591      0.95636977     50           
     15000   291.66437      1324.6615      0.95178218     50           
     15100   306.9774      -13929.86       0.96309839     51           
     15200   343.30054      2814.1729      1.0128776      51           
     15300   308.26361      1947.3761      0.96223556     51           
     15400   300.09973     -2861.2644      0.96822755     51           
     15500   289.27912      105.66328      0.9937309      51           
     15600   305.21921      1461.0816      1.0013561      51           
     15636   303.05549     -1997.901       0.99464231     51           
Loop time of 1.63499 on 8 procs for 1000 steps with 738 atoms

Performance: 52.844 ns/day, 0.454 hours/ns, 611.624 timesteps/s, 451.378 katom-step/s
96.9% CPU use with 8 MPI tasks x no OpenMP threads

MPI task timing breakdown:
Section |  min time  |  avg time  |  max time  |%varavg| %total
---------------------------------------------------------------
Pair    | 0.33084    | 0.44142    | 0.58592    |  12.1 | 27.00
Bond    | 0.03448    | 0.040722   | 0.050822   |   2.4 |  2.49
Kspace  | 0.48613    | 0.64145    | 0.75842    |  10.6 | 39.23
Neigh   | 0.057166   | 0.057259   | 0.057337   |   0.0 |  3.50
Comm    | 0.029593   | 0.02979    | 0.03004    |   0.1 |  1.82
Output  | 0.00016625 | 0.0001844  | 0.00029417 |   0.0 |  0.01
Modify  | 0.41776    | 0.4197     | 0.4208     |   0.2 | 25.67
Other   |            | 0.004471   |            |       |  0.27

Nlocal:          92.25 ave         114 max          79 min
Histogram: 2 1 2 0 1 0 0 0 1 1
Nghost:           2334 ave        2499 max        2182 min
Histogram: 1 1 0 2 1 1 0 0 0 2
Neighs:        30135.6 ave       38225 max       24949 min
Histogram: 2 1 2 0 0 1 0 0 1 1

Total # of neighbors = 241085
Ave neighs/atom = 326.67344
Ave special neighs/atom = 10.252033
Neighbor list builds = 32
Dangerous builds = 0
Resetting atom IDs ...
PPPM initialization ...
  using 12-bit tables for long-range coulomb (src/kspace.cpp:342)
  G vector (1/distance) = 0.26130182
  grid = 10 10 10
  stencil order = 5
  estimated absolute RMS force accuracy = 0.034061289
  estimated relative force accuracy = 0.00010257456
  using double precision KISS FFT
  3d grid and FFT values/proc = 1000 200
Generated 153 of 153 mixed pair_coeff terms from sixthpower mixing rule
Finding 1-2 1-3 1-4 neighbors ...
  special bond factors lj:    0        0        0       
  special bond factors coul:  0        0        0       
     3 = max # of 1-2 neighbors
     6 = max # of 1-3 neighbors
    12 = max # of 1-4 neighbors
    14 = max # of special neighbors
  special bonds CPU = 0.001 seconds
==================================Current bonds formed = 51 Minimum bonds desired = 55.8=======================================
==================================NVT PA POLYMERIZATION RUN: 300 C===============================
PPPM initialization ...
  using 12-bit tables for long-range coulomb (src/kspace.cpp:342)
  G vector (1/distance) = 0.26130182
  grid = 10 10 10
  stencil order = 5
  estimated absolute RMS force accuracy = 0.034061289
  estimated relative force accuracy = 0.00010257456
  using double precision KISS FFT
  3d grid and FFT values/proc = 1000 200
Generated 153 of 153 mixed pair_coeff terms from sixthpower mixing rule
WARNING: Inconsistent image flags (src/domain.cpp:1051)
Per MPI rank memory allocation (min/avg/max) = 21.14 | 21.51 | 21.78 Mbytes
   Step          Temp          Press         Density       f_PArxn[1]  
     15636   300           -2032.8856      0.99464231     51           
     15700   288.32563     -2086.7252      0.99464231     51           
     15800   299.56709     -917.21596      0.99464231     51           
     15900   310.67836     -1040.1883      0.99464231     51           
     16000   314.32431     -3272.5426      0.99464231     51           
     16100   284.1957      -95.811266      0.99464231     51           
     16200   297.76689      555.76161      0.99464231     51           
     16300   304.62998     -1291.0288      0.99464231     51           
     16400   307.47129      1197.643       0.99464231     51           
     16500   292.92219      231.55245      0.99464231     51           
     16600   300.28491     -420.30012      0.99464231     51           
     16636   287.48935      1847.4098      0.99464231     51           
Loop time of 1.39061 on 8 procs for 1000 steps with 738 atoms

Performance: 62.131 ns/day, 0.386 hours/ns, 719.111 timesteps/s, 530.704 katom-step/s
95.8% CPU use with 8 MPI tasks x no OpenMP threads

MPI task timing breakdown:
Section |  min time  |  avg time  |  max time  |%varavg| %total
---------------------------------------------------------------
Pair    | 0.25204    | 0.34622    | 0.44971    |  10.8 | 24.90
Bond    | 0.022518   | 0.028096   | 0.036155   |   2.6 |  2.02
Kspace  | 0.40576    | 0.51005    | 0.6044     |   9.0 | 36.68
Neigh   | 0.050418   | 0.050508   | 0.050611   |   0.0 |  3.63
Comm    | 0.029175   | 0.030209   | 0.032777   |   0.8 |  2.17
Output  | 0.00017092 | 0.0001858  | 0.00027071 |   0.0 |  0.01
Modify  | 0.41649    | 0.42287    | 0.42901    |   0.6 | 30.41
Other   |            | 0.002468   |            |       |  0.18

Nlocal:          92.25 ave         117 max          69 min
Histogram: 1 0 0 1 4 0 0 1 0 1
Nghost:         2332.5 ave        2527 max        2146 min
Histogram: 1 0 1 1 1 2 0 1 0 1
Neighs:        30052.2 ave       39186 max       21874 min
Histogram: 1 0 0 3 2 0 0 1 0 1

Total # of neighbors = 240418
Ave neighs/atom = 325.76965
Ave special neighs/atom = 10.252033
Neighbor list builds = 26
Dangerous builds = 0
PPPM initialization ...
  using 12-bit tables for long-range coulomb (src/kspace.cpp:342)
  G vector (1/distance) = 0.26130182
  grid = 10 10 10
  stencil order = 5
  estimated absolute RMS force accuracy = 0.034061289
  estimated relative force accuracy = 0.00010257456
  using double precision KISS FFT
  3d grid and FFT values/proc = 1000 200
Generated 153 of 153 mixed pair_coeff terms from sixthpower mixing rule
WARNING: Inconsistent image flags (src/domain.cpp:1051)
Per MPI rank memory allocation (min/avg/max) = 21.14 | 21.51 | 21.78 Mbytes
   Step          Temp          Press         Density       f_PArxn[1]  
     16636   287.48935      1847.4098      0.99464231     51           
     16700   295.37549      388.11737      0.97498675     51           
     16800   295.51664     -2097.6089      0.9818955      51           
     16900   299.52377      347.51454      1.003071       51           
     17000   339.99914      4347.043       1.0646126      52           
     17100   313.7345      -3375.7798      0.98842747     52           
     17200   312.43908      1292.5901      0.9573389      52           
     17300   291.3103       1182.7883      0.97215643     52           
     17400   292.48075      536.50408      0.96363318     52           
     17500   304.7572       1594.8322      0.98542017     52           
     17600   317.15339     -3543.4465      0.95760382     52           
     17636   301.61226     -1309.207       0.97010065     52           
Loop time of 1.58466 on 8 procs for 1000 steps with 736 atoms

Performance: 54.523 ns/day, 0.440 hours/ns, 631.052 timesteps/s, 464.454 katom-step/s
96.8% CPU use with 8 MPI tasks x no OpenMP threads

MPI task timing breakdown:
Section |  min time  |  avg time  |  max time  |%varavg| %total
---------------------------------------------------------------
Pair    | 0.33655    | 0.44776    | 0.54724    |   9.0 | 28.26
Bond    | 0.031184   | 0.039983   | 0.045928   |   2.1 |  2.52
Kspace  | 0.52412    | 0.63015    | 0.75188    |   8.1 | 39.77
Neigh   | 0.06984    | 0.069942   | 0.070158   |   0.0 |  4.41
Comm    | 0.029973   | 0.030939   | 0.031542   |   0.3 |  1.95
Output  | 0.00016367 | 0.0001769  | 0.00025083 |   0.0 |  0.01
Modify  | 0.36129    | 0.36227    | 0.36321    |   0.1 | 22.86
Other   |            | 0.003432   |            |       |  0.22

Nlocal:             92 ave         113 max          75 min
Histogram: 1 1 0 2 0 2 1 0 0 1
Nghost:        2286.62 ave        2449 max        2138 min
Histogram: 1 0 1 1 2 0 2 0 0 1
Neighs:        28826.4 ave       36299 max       22919 min
Histogram: 1 1 0 1 2 2 0 0 0 1

Total # of neighbors = 230611
Ave neighs/atom = 313.33016
Ave special neighs/atom = 10.288043
Neighbor list builds = 40
Dangerous builds = 0
Resetting atom IDs ...
PPPM initialization ...
  using 12-bit tables for long-range coulomb (src/kspace.cpp:342)
  G vector (1/distance) = 0.26072719
  grid = 10 10 10
  stencil order = 5
  estimated absolute RMS force accuracy = 0.034600105
  estimated relative force accuracy = 0.00010419719
  using double precision KISS FFT
  3d grid and FFT values/proc = 1000 200
Generated 153 of 153 mixed pair_coeff terms from sixthpower mixing rule
Finding 1-2 1-3 1-4 neighbors ...
  special bond factors lj:    0        0        0       
  special bond factors coul:  0        0        0       
     3 = max # of 1-2 neighbors
     6 = max # of 1-3 neighbors
    12 = max # of 1-4 neighbors
    14 = max # of special neighbors
  special bonds CPU = 0.000 seconds
==================================Current bonds formed = 52 Minimum bonds desired = 55.8=======================================
==================================NVT PA POLYMERIZATION RUN: 300 C===============================
PPPM initialization ...
  using 12-bit tables for long-range coulomb (src/kspace.cpp:342)
  G vector (1/distance) = 0.26072719
  grid = 10 10 10
  stencil order = 5
  estimated absolute RMS force accuracy = 0.034600105
  estimated relative force accuracy = 0.00010419719
  using double precision KISS FFT
  3d grid and FFT values/proc = 1000 200
Generated 153 of 153 mixed pair_coeff terms from sixthpower mixing rule
WARNING: Inconsistent image flags (src/domain.cpp:1051)
Per MPI rank memory allocation (min/avg/max) = 21.14 | 21.53 | 21.78 Mbytes
   Step          Temp          Press         Density       f_PArxn[1]  
     17636   300           -1330.762       0.97010065     52           
     17700   292.76046     -3646.3269      0.97010065     52           
     17800   294.75709     -2787.1024      0.97010065     52           
     17900   289.61273      2103.4093      0.97010065     52           
     18000   295.50643     -4073.9598      0.97010065     52           
     18100   298.60646      930.20423      0.97010065     52           
     18200   295.7178      -1743.938       0.97010065     52           
     18300   295.64295      1783.0932      0.97010065     52           
     18400   307.7519      -2738.5871      0.97010065     52           
     18500   291.78589      422.30338      0.97010065     52           
     18600   289.14497     -1660.4021      0.97010065     52           
     18636   277.59979     -266.70759      0.97010065     52           
Loop time of 1.38928 on 8 procs for 1000 steps with 736 atoms

Performance: 62.191 ns/day, 0.386 hours/ns, 719.800 timesteps/s, 529.773 katom-step/s
95.2% CPU use with 8 MPI tasks x no OpenMP threads

MPI task timing breakdown:
Section |  min time  |  avg time  |  max time  |%varavg| %total
---------------------------------------------------------------
Pair    | 0.26456    | 0.34755    | 0.43026    |   8.4 | 25.02
Bond    | 0.022986   | 0.029071   | 0.034313   |   2.2 |  2.09
Kspace  | 0.41719    | 0.50165    | 0.58761    |   7.2 | 36.11
Neigh   | 0.043247   | 0.043362   | 0.043546   |   0.1 |  3.12
Comm    | 0.03007    | 0.030718   | 0.031355   |   0.3 |  2.21
Output  | 0.0001575  | 0.00017191 | 0.000261   |   0.0 |  0.01
Modify  | 0.42895    | 0.43314    | 0.43707    |   0.4 | 31.18
Other   |            | 0.003601   |            |       |  0.26

Nlocal:             92 ave         108 max          77 min
Histogram: 1 0 1 1 1 2 0 1 0 1
Nghost:        2296.75 ave        2465 max        2163 min
Histogram: 1 1 1 1 1 1 1 0 0 1
Neighs:          29281 ave       35526 max       23456 min
Histogram: 1 0 2 0 1 2 0 1 0 1

Total # of neighbors = 234248
Ave neighs/atom = 318.27174
Ave special neighs/atom = 10.288043
Neighbor list builds = 24
Dangerous builds = 0
PPPM initialization ...
  using 12-bit tables for long-range coulomb (src/kspace.cpp:342)
  G vector (1/distance) = 0.26072719
  grid = 10 10 10
  stencil order = 5
  estimated absolute RMS force accuracy = 0.034600105
  estimated relative force accuracy = 0.00010419719
  using double precision KISS FFT
  3d grid and FFT values/proc = 1000 200
Generated 153 of 153 mixed pair_coeff terms from sixthpower mixing rule
WARNING: Inconsistent image flags (src/domain.cpp:1051)
Per MPI rank memory allocation (min/avg/max) = 21.14 | 21.53 | 21.78 Mbytes
   Step          Temp          Press         Density       f_PArxn[1]  
     18636   277.59979     -266.70759      0.97010065     52           
     18700   302.65781     -1931.9528      0.96540942     52           
     18800   297.06775      772.81186      0.9635897      52           
     18900   305.5996       328.36012      0.97917366     52           
     19000   311.38137      270.99712      1.0118539      52           
     19100   287.39681     -878.80935      1.0218287      52           
     19200   299.8942       1262.2999      1.0423657      52           
     19300   302.94352      1037.6087      1.0511165      52           
     19400   326.58537      1348.2935      1.059164       52           
     19500   323.30103     -84.204615      1.0370109      52           
     19600   295.42807      1999.4385      1.0500478      52           
     19636   286.92326     -928.6787       1.0573452      52           
Loop time of 1.75755 on 8 procs for 1000 steps with 736 atoms

Performance: 49.159 ns/day, 0.488 hours/ns, 568.975 timesteps/s, 418.765 katom-step/s
95.2% CPU use with 8 MPI tasks x no OpenMP threads

MPI task timing breakdown:
Section |  min time  |  avg time  |  max time  |%varavg| %total
---------------------------------------------------------------
Pair    | 0.40478    | 0.47527    | 0.55749    |   7.0 | 27.04
Bond    | 0.036357   | 0.040964   | 0.045669   |   1.6 |  2.33
Kspace  | 0.61016    | 0.69735    | 0.77323    |   6.2 | 39.68
Neigh   | 0.048095   | 0.048173   | 0.048268   |   0.0 |  2.74
Comm    | 0.03114    | 0.032349   | 0.033419   |   0.4 |  1.84
Output  | 0.00015717 | 0.00017053 | 0.00025363 |   0.0 |  0.01
Modify  | 0.45754    | 0.45906    | 0.45992    |   0.1 | 26.12
Other   |            | 0.004207   |            |       |  0.24

Nlocal:             92 ave         104 max          81 min
Histogram: 1 1 0 2 1 0 1 0 0 2
Nghost:           2410 ave        2519 max        2307 min
Histogram: 1 1 1 0 1 1 1 0 1 1
Neighs:          31953 ave       37172 max       28117 min
Histogram: 2 0 1 2 0 1 0 0 1 1

Total # of neighbors = 255624
Ave neighs/atom = 347.31522
Ave special neighs/atom = 10.288043
Neighbor list builds = 25
Dangerous builds = 0
Resetting atom IDs ...
PPPM initialization ...
[...]
Output  | 0.00016183 | 0.00017535 | 0.00025858 |   0.0 |  0.01
Modify  | 0.50313    | 0.5036     | 0.50379    |   0.0 | 27.05
Other   |            | 0.002942   |            |       |  0.16

Nlocal:          91.75 ave         101 max          88 min
Histogram: 3 0 1 3 0 0 0 0 0 1
Nghost:        2512.25 ave        2560 max        2492 min
Histogram: 2 2 2 0 1 0 0 0 0 1
Neighs:        34213.9 ave       37135 max       33184 min
Histogram: 3 2 1 0 1 0 0 0 0 1

Total # of neighbors = 273711
Ave neighs/atom = 372.90327
Ave special neighs/atom = 10.324251
Neighbor list builds = 25
Dangerous builds = 0
Resetting atom IDs ...
PPPM initialization ...
  using 12-bit tables for long-range coulomb (src/kspace.cpp:342)
  G vector (1/distance) = 0.25585651
  grid = 9 9 9
  stencil order = 5
  estimated absolute RMS force accuracy = 0.04585976
  estimated relative force accuracy = 0.00013810531
  using double precision KISS FFT
  3d grid and FFT values/proc = 1000 162
Generated 153 of 153 mixed pair_coeff terms from sixthpower mixing rule
Finding 1-2 1-3 1-4 neighbors ...
  special bond factors lj:    0        0        0       
  special bond factors coul:  0        0        0       
     3 = max # of 1-2 neighbors
     6 = max # of 1-3 neighbors
    12 = max # of 1-4 neighbors
    14 = max # of special neighbors
  special bonds CPU = 0.000 seconds
==================================Current bonds formed = 53 Minimum bonds desired = 55.8=======================================
==================================NVT PA POLYMERIZATION RUN: 300 C===============================
PPPM initialization ...
  using 12-bit tables for long-range coulomb (src/kspace.cpp:342)
  G vector (1/distance) = 0.25585651
  grid = 9 9 9
  stencil order = 5
  estimated absolute RMS force accuracy = 0.04585976
  estimated relative force accuracy = 0.00013810531
  using double precision KISS FFT
  3d grid and FFT values/proc = 1000 162
Generated 153 of 153 mixed pair_coeff terms from sixthpower mixing rule
WARNING: Inconsistent image flags (src/domain.cpp:1051)
Per MPI rank memory allocation (min/avg/max) = 21.39 | 21.65 | 21.85 Mbytes
   Step          Temp          Press         Density       f_PArxn[1]  
     95636   300           -1552.1892      1.1249564      53           
     95700   306.93616     -2603.0494      1.1249564      53           
     95800   295.46928     -4243.1064      1.1249564      53           
     95900   310.52488     -1499.8991      1.1249564      53           
     96000   310.92559      2448.1908      1.1249564      53           
     96100   308.74288     -2183.1795      1.1249564      53           
     96200   289.96681     -723.13042      1.1249564      53           
     96300   301.75756     -700.66045      1.1249564      53           
     96400   297.14058      988.57436      1.1249564      53           
     96500   305.70247     -2814.2463      1.1249564      53           
     96600   300.49214      1254.8471      1.1249564      53           
     96636   307.84605     -2061.8504      1.1249564      53           
Loop time of 1.56317 on 8 procs for 1000 steps with 734 atoms

Performance: 55.272 ns/day, 0.434 hours/ns, 639.725 timesteps/s, 469.558 katom-step/s
97.5% CPU use with 8 MPI tasks x no OpenMP threads

MPI task timing breakdown:
Section |  min time  |  avg time  |  max time  |%varavg| %total
---------------------------------------------------------------
Pair    | 0.38476    | 0.41775    | 0.44709    |   4.2 | 26.72
Bond    | 0.024507   | 0.029569   | 0.03416    |   1.7 |  1.89
Kspace  | 0.47042    | 0.49928    | 0.53516    |   4.0 | 31.94
Neigh   | 0.058456   | 0.058648   | 0.058733   |   0.0 |  3.75
Comm    | 0.034112   | 0.037832   | 0.040834   |   0.9 |  2.42
Output  | 0.00016938 | 0.00018698 | 0.00030138 |   0.0 |  0.01
Modify  | 0.51485    | 0.51645    | 0.51902    |   0.2 | 33.04
Other   |            | 0.003455   |            |       |  0.22

Nlocal:          91.75 ave          98 max          85 min
Histogram: 1 3 0 0 0 0 0 1 0 3
Nghost:        2524.25 ave        2573 max        2476 min
Histogram: 3 0 1 0 0 0 0 0 2 2
Neighs:        34554.9 ave       37131 max       32054 min
Histogram: 2 1 1 0 0 0 0 0 2 2

Total # of neighbors = 276439
Ave neighs/atom = 376.61989
Ave special neighs/atom = 10.324251
Neighbor list builds = 26
Dangerous builds = 0
PPPM initialization ...
  using 12-bit tables for long-range coulomb (src/kspace.cpp:342)
  G vector (1/distance) = 0.25585651
  grid = 9 9 9
  stencil order = 5
  estimated absolute RMS force accuracy = 0.04585976
  estimated relative force accuracy = 0.00013810531
  using double precision KISS FFT
  3d grid and FFT values/proc = 1000 162
Generated 153 of 153 mixed pair_coeff terms from sixthpower mixing rule
WARNING: Inconsistent image flags (src/domain.cpp:1051)
Per MPI rank memory allocation (min/avg/max) = 21.39 | 21.65 | 21.85 Mbytes
   Step          Temp          Press         Density       f_PArxn[1]  
     96636   307.84605     -2061.8504      1.1249564      53           
     96700   309.98271     -2916.519       1.1193995      53           
     96800   293.43072     -151.6447       1.1346117      53           
     96900   299.98715      21.991738      1.1247271      53           
     97000   290.7702      -3055.368       1.1326321      53           
     97100   304.23042     -1399.8823      1.125816       53           
     97200   303.9937       4617.056       1.1421482      53           
     97300   298.73368     -1312.9556      1.1355558      53           
     97400   291.94604      2103.1415      1.1355186      53           
     97500   286.59207     -1884.6624      1.1290989      53           
     97600   295.33953     -124.74581      1.1245751      53           
     97636   297.13681      2105.847       1.1411853      53           
Loop time of 1.80472 on 8 procs for 1000 steps with 734 atoms

Performance: 47.874 ns/day, 0.501 hours/ns, 554.101 timesteps/s, 406.710 katom-step/s
97.6% CPU use with 8 MPI tasks x no OpenMP threads

MPI task timing breakdown:
Section |  min time  |  avg time  |  max time  |%varavg| %total
---------------------------------------------------------------
Pair    | 0.47531    | 0.53717    | 0.60501    |   5.1 | 29.76
Bond    | 0.036358   | 0.041697   | 0.04639    |   1.4 |  2.31
Kspace  | 0.58184    | 0.65411    | 0.72246    |   5.1 | 36.24
Neigh   | 0.061002   | 0.06224    | 0.06274    |   0.3 |  3.45
Comm    | 0.035672   | 0.037528   | 0.038538   |   0.5 |  2.08
Output  | 0.00016646 | 0.00018148 | 0.00026908 |   0.0 |  0.01
Modify  | 0.46866    | 0.46877    | 0.46884    |   0.0 | 25.97
Other   |            | 0.00303    |            |       |  0.17

Nlocal:          91.75 ave         104 max          86 min
Histogram: 3 2 0 0 1 0 0 1 0 1
Nghost:           2543 ave        2625 max        2451 min
Histogram: 1 0 0 1 2 1 0 2 0 1
Neighs:        34935.1 ave       39667 max       32402 min
Histogram: 2 1 2 0 1 0 1 0 0 1

Total # of neighbors = 279481
Ave neighs/atom = 380.76431
Ave special neighs/atom = 10.324251
Neighbor list builds = 27
Dangerous builds = 0
Resetting atom IDs ...
PPPM initialization ...
  using 12-bit tables for long-range coulomb (src/kspace.cpp:342)
  G vector (1/distance) = 0.25628801
  grid = 9 9 9
  stencil order = 5
  estimated absolute RMS force accuracy = 0.045373622
  estimated relative force accuracy = 0.00013664131
  using double precision KISS FFT
  3d grid and FFT values/proc = 1000 162
Generated 153 of 153 mixed pair_coeff terms from sixthpower mixing rule
Finding 1-2 1-3 1-4 neighbors ...
  special bond factors lj:    0        0        0       
  special bond factors coul:  0        0        0       
     3 = max # of 1-2 neighbors
     6 = max # of 1-3 neighbors
    12 = max # of 1-4 neighbors
    14 = max # of special neighbors
  special bonds CPU = 0.000 seconds
==================================Current bonds formed = 53 Minimum bonds desired = 55.8=======================================
==================================NVT PA POLYMERIZATION RUN: 300 C===============================
PPPM initialization ...
  using 12-bit tables for long-range coulomb (src/kspace.cpp:342)
  G vector (1/distance) = 0.25628801
  grid = 9 9 9
  stencil order = 5
  estimated absolute RMS force accuracy = 0.045373622
  estimated relative force accuracy = 0.00013664131
  using double precision KISS FFT
  3d grid and FFT values/proc = 1000 162
Generated 153 of 153 mixed pair_coeff terms from sixthpower mixing rule
Per MPI rank memory allocation (min/avg/max) = 21.39 | 21.65 | 21.85 Mbytes
   Step          Temp          Press         Density       f_PArxn[1]  
WARNING: Too many warnings: 101 vs 100. All future warnings will be suppressed (src/thermo.cpp:478)
     97636   300            2135.699       1.1411853      53           
     97700   312.84361     -1112.8942      1.1411853      53           
     97800   300.33711      1832.9352      1.1411853      53           
     97900   292.4399       610.40912      1.1411853      53           
     98000   306.87985      1872.9907      1.1411853      53           
     98100   296.19796      3441.4849      1.1411853      53           
     98200   300.28805     -1358.7455      1.1411853      53           
     98300   306.57842     -949.03067      1.1411853      53           
     98400   311.11336      876.92243      1.1411853      53           
     98500   300.52863     -1749.9567      1.1411853      53           
     98600   297.76281      1691.6977      1.1411853      53           
     98636   291.95372      1650.7425      1.1411853      53           
Loop time of 1.56601 on 8 procs for 1000 steps with 734 atoms

Performance: 55.172 ns/day, 0.435 hours/ns, 638.564 timesteps/s, 468.706 katom-step/s
97.3% CPU use with 8 MPI tasks x no OpenMP threads

MPI task timing breakdown:
Section |  min time  |  avg time  |  max time  |%varavg| %total
---------------------------------------------------------------
Pair    | 0.38116    | 0.4256     | 0.46131    |   3.6 | 27.18
Bond    | 0.026123   | 0.028781   | 0.031832   |   1.0 |  1.84
Kspace  | 0.47375    | 0.50802    | 0.55307    |   3.3 | 32.44
Neigh   | 0.057483   | 0.057699   | 0.057997   |   0.1 |  3.68
Comm    | 0.03451    | 0.036396   | 0.038143   |   0.7 |  2.32
Output  | 0.00017546 | 0.00019408 | 0.00027454 |   0.0 |  0.01
Modify  | 0.50507    | 0.50683    | 0.50797    |   0.1 | 32.36
Other   |            | 0.002503   |            |       |  0.16

Nlocal:          91.75 ave         101 max          79 min
Histogram: 1 0 1 0 0 2 2 0 0 2
Nghost:        2562.88 ave        2676 max        2466 min
Histogram: 1 1 0 1 2 0 1 1 0 1
Neighs:          34972 ave       38922 max       29658 min
Histogram: 1 0 0 1 0 2 2 0 1 1

Total # of neighbors = 279776
Ave neighs/atom = 381.16621
Ave special neighs/atom = 10.324251
Neighbor list builds = 25
Dangerous builds = 0
PPPM initialization ...
  using 12-bit tables for long-range coulomb (src/kspace.cpp:342)
  G vector (1/distance) = 0.25628801
  grid = 9 9 9
  stencil order = 5
  estimated absolute RMS force accuracy = 0.045373622
  estimated relative force accuracy = 0.00013664131
  using double precision KISS FFT
  3d grid and FFT values/proc = 1000 162
Generated 153 of 153 mixed pair_coeff terms from sixthpower mixing rule
Per MPI rank memory allocation (min/avg/max) = 21.39 | 21.65 | 21.85 Mbytes
   Step          Temp          Press         Density       f_PArxn[1]  
     98636   291.95372      1650.7425      1.1411853      53           
     98700   301.95309     -3261.455       1.138612       53           
     98800   300.96601     -1324.4451      1.1365796      53           
     98900   317.29012      790.83369      1.137474       53           
     99000   313.12549     -50.142255      1.1428637      53           
     99100   309.08352      298.47989      1.1521603      53           
     99200   281.59442      2822.0301      1.16843        53           
     99300   287.9723      -2463.9889      1.1527855      53           
     99400   286.63987      539.50726      1.1343339      53           
     99500   327.62688     -1359.5534      1.1538498      53           
     99600   313.73589      1115.9705      1.1535649      53           
     99636   309.2054      -3985.9391      1.1416673      53           
Loop time of 1.95844 on 8 procs for 1000 steps with 734 atoms

Performance: 44.117 ns/day, 0.544 hours/ns, 510.610 timesteps/s, 374.788 katom-step/s
96.1% CPU use with 8 MPI tasks x no OpenMP threads

MPI task timing breakdown:
Section |  min time  |  avg time  |  max time  |%varavg| %total
---------------------------------------------------------------
Pair    | 0.46348    | 0.5571     | 0.64194    |   6.9 | 28.45
Bond    | 0.034116   | 0.041972   | 0.050414   |   2.3 |  2.14
Kspace  | 0.61401    | 0.70326    | 0.80421    |   6.7 | 35.91
Neigh   | 0.061153   | 0.062743   | 0.063287   |   0.3 |  3.20
Comm    | 0.036225   | 0.038134   | 0.040471   |   0.7 |  1.95
Output  | 0.00015267 | 0.00016807 | 0.000262   |   0.0 |  0.01
Modify  | 0.55084    | 0.55155    | 0.55188    |   0.0 | 28.16
Other   |            | 0.003522   |            |       |  0.18

Nlocal:          91.75 ave         106 max          72 min
Histogram: 1 0 0 0 1 1 3 1 0 1
Nghost:           2566 ave        2686 max        2448 min
Histogram: 1 0 0 2 1 0 3 0 0 1
Neighs:        35344.1 ave       41229 max       27340 min
Histogram: 1 0 0 0 1 1 3 1 0 1

Total # of neighbors = 282753
Ave neighs/atom = 385.22207
Ave special neighs/atom = 10.324251
Neighbor list builds = 26
Dangerous builds = 0
Resetting atom IDs ...
PPPM initialization ...
  using 12-bit tables for long-range coulomb (src/kspace.cpp:342)
  G vector (1/distance) = 0.25630066
  grid = 9 9 9
  stencil order = 5
  estimated absolute RMS force accuracy = 0.045359386
  estimated relative force accuracy = 0.00013659844
  using double precision KISS FFT
  3d grid and FFT values/proc = 1000 162
Generated 153 of 153 mixed pair_coeff terms from sixthpower mixing rule
Finding 1-2 1-3 1-4 neighbors ...
  special bond factors lj:    0        0        0       
  special bond factors coul:  0        0        0       
     3 = max # of 1-2 neighbors
     6 = max # of 1-3 neighbors
    12 = max # of 1-4 neighbors
    14 = max # of special neighbors
  special bonds CPU = 0.000 seconds
==================================Current bonds formed = 53 Minimum bonds desired = 55.8=======================================
==================================NVT PA POLYMERIZATION RUN: 300 C===============================
PPPM initialization ...
  using 12-bit tables for long-range coulomb (src/kspace.cpp:342)
  G vector (1/distance) = 0.25630066
  grid = 9 9 9
  stencil order = 5
  estimated absolute RMS force accuracy = 0.045359386
  estimated relative force accuracy = 0.00013659844
  using double precision KISS FFT
  3d grid and FFT values/proc = 1000 162
Generated 153 of 153 mixed pair_coeff terms from sixthpower mixing rule
Per MPI rank memory allocation (min/avg/max) = 21.39 | 21.65 | 21.85 Mbytes
   Step          Temp          Press         Density       f_PArxn[1]  
     99636   300           -4081.4044      1.1416673      53           
     99700   303.53        -2089.2512      1.1416673      53           
     99800   287.97216      735.05659      1.1416673      53           
     99900   297.0343       1322.946       1.1416673      53           
    100000   289.61309     -741.9212       1.1416673      53           
    100100   299.83907      2721.1744      1.1416673      53           
    100200   311.11131      1757.9295      1.1416673      53           
    100300   315.52574      3190.5469      1.1416673      53           
    100400   323.73085      2207.2546      1.1416673      53           
    100500   320.20606      1673.9285      1.1416673      53           
    100600   301.37472      2559.0383      1.1416673      53           
    100636   292.57498     -2705.7731      1.1416673      53           
Loop time of 1.7076 on 8 procs for 1000 steps with 734 atoms

Performance: 50.597 ns/day, 0.474 hours/ns, 585.617 timesteps/s, 429.843 katom-step/s
94.9% CPU use with 8 MPI tasks x no OpenMP threads

MPI task timing breakdown:
Section |  min time  |  avg time  |  max time  |%varavg| %total
---------------------------------------------------------------
Pair    | 0.36951    | 0.43852    | 0.4903     |   5.1 | 25.68
Bond    | 0.023635   | 0.029906   | 0.035457   |   1.9 |  1.75
Kspace  | 0.51374    | 0.56759    | 0.63921    |   4.7 | 33.24
Neigh   | 0.063386   | 0.063565   | 0.063828   |   0.1 |  3.72
Comm    | 0.039915   | 0.041127   | 0.042727   |   0.5 |  2.41
Output  | 0.00016571 | 0.00018281 | 0.00029679 |   0.0 |  0.01
Modify  | 0.56039    | 0.56262    | 0.56598    |   0.3 | 32.95
Other   |            | 0.004089   |            |       |  0.24

Nlocal:          91.75 ave         102 max          83 min
Histogram: 1 0 2 1 0 2 0 1 0 1
Nghost:           2537 ave        2624 max        2447 min
Histogram: 1 0 1 1 1 1 1 0 1 1
Neighs:        34994.8 ave       39210 max       30996 min
Histogram: 1 0 1 2 0 1 2 0 0 1

Total # of neighbors = 279958
Ave neighs/atom = 381.41417
Ave special neighs/atom = 10.324251
Neighbor list builds = 26
Dangerous builds = 0
PPPM initialization ...
  using 12-bit tables for long-range coulomb (src/kspace.cpp:342)
  G vector (1/distance) = 0.25630066
  grid = 9 9 9
  stencil order = 5
  estimated absolute RMS force accuracy = 0.045359386
  estimated relative force accuracy = 0.00013659844
  using double precision KISS FFT
  3d grid and FFT values/proc = 1000 162
Generated 153 of 153 mixed pair_coeff terms from sixthpower mixing rule
Per MPI rank memory allocation (min/avg/max) = 21.39 | 21.65 | 21.85 Mbytes
   Step          Temp          Press         Density       f_PArxn[1]  
    100636   292.57498     -2705.7731      1.1416673      53           
    100700   295.43727     -1340.0589      1.1361636      53           
    100800   313.03926      2553.4004      1.1425708      53           
    100900   304.23377     -2122.0785      1.1320479      53           
    101000   317.27647      2808.5637      1.1327079      53           
    101100   318.60376      1729.9157      1.1473464      53           
    101200   304.17038     -1758.3949      1.1263486      53           
    101300   294.94283     -753.22339      1.1306043      53           
    101400   297.08264     -637.54779      1.1416987      53           
    101500   285.52444      636.53694      1.1328788      53           
    101600   299.26083     -545.89549      1.1272944      53           
    101636   309.79876      720.17975      1.1338846      53           
Loop time of 1.86873 on 8 procs for 1000 steps with 734 atoms

Performance: 46.235 ns/day, 0.519 hours/ns, 535.124 timesteps/s, 392.781 katom-step/s
96.6% CPU use with 8 MPI tasks x no OpenMP threads

MPI task timing breakdown:
Section |  min time  |  avg time  |  max time  |%varavg| %total
---------------------------------------------------------------
Pair    | 0.45145    | 0.54719    | 0.63382    |   6.6 | 29.28
Bond    | 0.033544   | 0.04161    | 0.047923   |   2.1 |  2.23
Kspace  | 0.57182    | 0.66311    | 0.76604    |   6.4 | 35.48
Neigh   | 0.053658   | 0.054965   | 0.056211   |   0.5 |  2.94
Comm    | 0.036193   | 0.039208   | 0.042427   |   1.4 |  2.10
Output  | 0.00015717 | 0.00017107 | 0.00025521 |   0.0 |  0.01
Modify  | 0.51909    | 0.51964    | 0.51978    |   0.0 | 27.81
Other   |            | 0.002834   |            |       |  0.15

Nlocal:          91.75 ave         102 max          82 min
Histogram: 2 0 0 0 0 4 0 0 1 1
Nghost:        2511.88 ave        2600 max        2414 min
Histogram: 1 0 1 2 0 0 1 1 1 1
Neighs:        34597.1 ave       38447 max       30478 min
Histogram: 2 0 0 0 0 4 0 0 1 1

Total # of neighbors = 276777
Ave neighs/atom = 377.08038
Ave special neighs/atom = 10.324251
Neighbor list builds = 25
Dangerous builds = 0
