units            real
atom_style       full
dimension        3
newton           off
boundary         p p p
echo             none
Reading data file ...
  orthogonal box = (0 0 0) to (90 90 90)
  2 by 2 by 2 MPI processor grid
  reading atoms ...
  18 atoms
  scanning bonds ...
  3 = max bonds/atom
  scanning angles ...
  9 = max angles/atom
  scanning dihedrals ...
  20 = max dihedrals/atom
  scanning impropers ...
  11 = max impropers/atom
  orthogonal box = (0 0 0) to (90 90 90)
  2 by 2 by 2 MPI processor grid
  reading bonds ...
  18 bonds
  reading angles ...
  27 angles
  reading dihedrals ...
  45 dihedrals
  reading impropers ...
  18 impropers
Finding 1-2 1-3 1-4 neighbors ...
  special bond factors lj:    0        0        0       
  special bond factors coul:  0        0        0       
     3 = max # of 1-2 neighbors
     6 = max # of 1-3 neighbors
    12 = max # of 1-4 neighbors
    14 = max # of special neighbors
  special bonds CPU = 0.001 seconds
  read_data CPU = 0.007 seconds
Displacing atoms ...
WARNING: Ignoring 'compress yes' for molecular system (src/delete_atoms.cpp:141)
Deleted 18 atoms, new total = 0
Changing box ...
  orthogonal box = (0 0 0) to (41.7743 90 90)
  orthogonal box = (0 0 0) to (41.7743 41.7743 90)
  orthogonal box = (0 0 0) to (41.7743 41.7743 41.7743)
Lattice spacing in x,y,z = 11.3 11.3 11.3
Read molecule template MPDmol:
this is a moleule template for: mpd monomer
  1 molecules
  0 fragments
  16 atoms with max type 8
  16 bonds with max type 9
  24 angles with max type 25
  38 dihedrals with max type 9
  21 impropers with max type 9
Read molecule template TMCmol:
this is a molecule template for: whole tmc molecule
  1 molecules
  0 fragments
  18 atoms with max type 18
  18 bonds with max type 18
  27 angles with max type 24
  45 dihedrals with max type 31
  18 impropers with max type 5
Created 480 atoms
  using lattice units in orthogonal box = (0 0 0) to (41.7743 41.7743 41.7743)
  create_atoms CPU = 0.002 seconds
480 atoms in group MPDs
Created 360 atoms
  using lattice units in orthogonal box = (0 0 0) to (41.7743 41.7743 41.7743)
  create_atoms CPU = 0.002 seconds
360 atoms in group TMCs
Number of atoms in TMCs group: 360
System init for delete_atoms ...
PPPM initialization ...
  using 12-bit tables for long-range coulomb (src/kspace.cpp:342)
  G vector (1/distance) = 0.24151373
  grid = 15 15 15
  stencil order = 5
  estimated absolute RMS force accuracy = 0.028251718
  estimated relative force accuracy = 8.507921e-05
  using double precision KISS FFT
  3d grid and FFT values/proc = 2197 512
Generated 153 of 153 mixed pair_coeff terms from sixthpower mixing rule
Neighbor list info ...
  update: every = 1 steps, delay = 0 steps, check = yes
  max neighbors/atom: 2000, page size: 100000
  master list distance cutoff = 11
  ghost atom cutoff = 11
  binsize = 5.5, bins = 8 8 8
  2 neighbor lists, perpetual/occasional/extra = 1 1 0
  (1) command delete_atoms, occasional
      attributes: full, newton off
      pair build: full/bin
      stencil: full/bin/3d
      bin: standard
  (2) pair lj/charmm/coul/long, perpetual
      attributes: half, newton off
      pair build: half/bin/newtoff
      stencil: full/bin/3d
      bin: standard
WARNING: Ignoring 'compress yes' for molecular system (src/delete_atoms.cpp:141)
Deleted 90 atoms, new total = 750
Deleted 90 bonds, new total = 750
Deleted 135 angles, new total = 1125
Deleted 225 dihedrals, new total = 1815
Deleted 90 impropers, new total = 900

CITE-CITE-CITE-CITE-CITE-CITE-CITE-CITE-CITE-CITE-CITE-CITE-CITE

Your simulation uses code contributions which should be cited:

- Type Label Framework: https://doi.org/10.1021/acs.jpcb.3c08419

@Article{Gissinger24,
 author = {Jacob R. Gissinger, Ilia Nikiforov, Yaser Afshar, Brendon Waters, Moon-ki Choi, Daniel S. Karls, Alexander Stukowski, Wonpil Im, Hendrik Heinz, Axel Kohlmeyer, and Ellad B. Tadmor},
 title = {Type Label Framework for Bonded Force Fields in LAMMPS},
 journal = {J. Phys. Chem. B},
 year =    2024,
 volume =  128,
 number =  13,
 pages =   {3282–-3297}
}

CITE-CITE-CITE-CITE-CITE-CITE-CITE-CITE-CITE-CITE-CITE-CITE-CITE

PPPM initialization ...
  using 12-bit tables for long-range coulomb (src/kspace.cpp:342)
  G vector (1/distance) = 0.24151373
  grid = 15 15 15
  stencil order = 5
  estimated absolute RMS force accuracy = 0.024961547
  estimated relative force accuracy = 7.5170958e-05
  using double precision KISS FFT
  3d grid and FFT values/proc = 2197 512
Generated 153 of 153 mixed pair_coeff terms from sixthpower mixing rule
Neighbor list info ...
  update: every = 1 steps, delay = 0 steps, check = yes
  max neighbors/atom: 2000, page size: 100000
  master list distance cutoff = 11
  ghost atom cutoff = 11
  binsize = 5.5, bins = 8 8 8
  1 neighbor lists, perpetual/occasional/extra = 1 0 0
  (1) pair lj/charmm/coul/long, perpetual
      attributes: half, newton off
      pair build: half/bin/newtoff
      stencil: full/bin/3d
      bin: standard
Per MPI rank memory allocation (min/avg/max) = 19.63 | 19.8 | 20.17 Mbytes
   Step          Temp          E_pair         E_mol          TotEng         Press     
         0   0              739657.76      5014.3253      744672.08      2777154.4    
Loop time of 3.51025e-06 on 8 procs for 0 steps with 750 atoms

96.1% CPU use with 8 MPI tasks x no OpenMP threads

MPI task timing breakdown:
Section |  min time  |  avg time  |  max time  |%varavg| %total
---------------------------------------------------------------
Pair    | 0          | 0          | 0          |   0.0 |  0.00
Bond    | 0          | 0          | 0          |   0.0 |  0.00
Kspace  | 0          | 0          | 0          |   0.0 |  0.00
Neigh   | 0          | 0          | 0          |   0.0 |  0.00
Comm    | 0          | 0          | 0          |   0.0 |  0.00
Output  | 0          | 0          | 0          |   0.0 |  0.00
Modify  | 0          | 0          | 0          |   0.0 |  0.00
Other   |            | 3.51e-06   |            |       |100.00

Nlocal:          93.75 ave         138 max          31 min
Histogram: 1 0 0 1 1 0 2 2 0 1
Nghost:         719.75 ave         764 max         688 min
Histogram: 1 1 0 3 1 0 1 0 0 1
Neighs:         4740.5 ave        6648 max        1670 min
Histogram: 1 0 0 2 0 0 1 0 2 2

Total # of neighbors = 37924
Ave neighs/atom = 50.565333
Ave special neighs/atom = 8.64
Neighbor list builds = 0
Dangerous builds = 0
Created 90 atoms
  using lattice units in orthogonal box = (0 0 0) to (41.7743 41.7743 41.7743)
  create_atoms CPU = 0.000 seconds
360 atoms in group TMCs
Number of atoms in TMCs group: 360
System init for delete_atoms ...
PPPM initialization ...
  using 12-bit tables for long-range coulomb (src/kspace.cpp:342)
  G vector (1/distance) = 0.24151373
  grid = 15 15 15
  stencil order = 5
  estimated absolute RMS force accuracy = 0.028251718
  estimated relative force accuracy = 8.507921e-05
  using double precision KISS FFT
  3d grid and FFT values/proc = 2197 512
Generated 153 of 153 mixed pair_coeff terms from sixthpower mixing rule
Neighbor list info ...
  update: every = 1 steps, delay = 0 steps, check = yes
  max neighbors/atom: 2000, page size: 100000
  master list distance cutoff = 11
  ghost atom cutoff = 11
  binsize = 5.5, bins = 8 8 8
  2 neighbor lists, perpetual/occasional/extra = 1 1 0
  (1) command delete_atoms, occasional
      attributes: full, newton off
      pair build: full/bin
      stencil: full/bin/3d
      bin: standard
  (2) pair lj/charmm/coul/long, perpetual
      attributes: half, newton off
      pair build: half/bin/newtoff
      stencil: full/bin/3d
      bin: standard
WARNING: Ignoring 'compress yes' for molecular system (src/delete_atoms.cpp:141)
Deleted 36 atoms, new total = 804
Deleted 36 bonds, new total = 804
Deleted 54 angles, new total = 1206
Deleted 90 dihedrals, new total = 1950
Deleted 36 impropers, new total = 954
PPPM initialization ...
  using 12-bit tables for long-range coulomb (src/kspace.cpp:342)
  G vector (1/distance) = 0.24151373
  grid = 15 15 15
  stencil order = 5
  estimated absolute RMS force accuracy = 0.026969863
  estimated relative force accuracy = 8.1218941e-05
  using double precision KISS FFT
  3d grid and FFT values/proc = 2197 512
Generated 153 of 153 mixed pair_coeff terms from sixthpower mixing rule
Neighbor list info ...
  update: every = 1 steps, delay = 0 steps, check = yes
  max neighbors/atom: 2000, page size: 100000
  master list distance cutoff = 11
  ghost atom cutoff = 11
  binsize = 5.5, bins = 8 8 8
  1 neighbor lists, perpetual/occasional/extra = 1 0 0
  (1) pair lj/charmm/coul/long, perpetual
      attributes: half, newton off
      pair build: half/bin/newtoff
      stencil: full/bin/3d
      bin: standard
Per MPI rank memory allocation (min/avg/max) = 20.89 | 21.11 | 21.55 Mbytes
   Step          Temp          E_pair         E_mol          TotEng         Press     
         0   0              740266.56      5941.2163      746207.78      2778243.3    
Loop time of 3.38012e-06 on 8 procs for 0 steps with 804 atoms

99.8% CPU use with 8 MPI tasks x no OpenMP threads

MPI task timing breakdown:
Section |  min time  |  avg time  |  max time  |%varavg| %total
---------------------------------------------------------------
Pair    | 0          | 0          | 0          |   0.0 |  0.00
Bond    | 0          | 0          | 0          |   0.0 |  0.00
Kspace  | 0          | 0          | 0          |   0.0 |  0.00
Neigh   | 0          | 0          | 0          |   0.0 |  0.00
Comm    | 0          | 0          | 0          |   0.0 |  0.00
Output  | 0          | 0          | 0          |   0.0 |  0.00
Modify  | 0          | 0          | 0          |   0.0 |  0.00
Other   |            | 3.38e-06   |            |       |100.00

Nlocal:          100.5 ave         156 max          31 min
Histogram: 1 0 0 1 1 2 1 0 1 1
Nghost:          772.5 ave         818 max         735 min
Histogram: 1 0 1 2 1 0 2 0 0 1
Neighs:        5287.38 ave        7712 max        1771 min
Histogram: 1 0 0 1 2 0 0 1 1 2

Total # of neighbors = 42299
Ave neighs/atom = 52.610697
Ave special neighs/atom = 8.641791
Neighbor list builds = 0
Dangerous builds = 0
Created 36 atoms
  using lattice units in orthogonal box = (0 0 0) to (41.7743 41.7743 41.7743)
  create_atoms CPU = 0.000 seconds
360 atoms in group TMCs
Number of atoms in TMCs group: 360
System init for delete_atoms ...
PPPM initialization ...
  using 12-bit tables for long-range coulomb (src/kspace.cpp:342)
  G vector (1/distance) = 0.24151373
  grid = 15 15 15
  stencil order = 5
  estimated absolute RMS force accuracy = 0.028251718
  estimated relative force accuracy = 8.507921e-05
  using double precision KISS FFT
  3d grid and FFT values/proc = 2197 512
Generated 153 of 153 mixed pair_coeff terms from sixthpower mixing rule
Neighbor list info ...
  update: every = 1 steps, delay = 0 steps, check = yes
  max neighbors/atom: 2000, page size: 100000
  master list distance cutoff = 11
  ghost atom cutoff = 11
  binsize = 5.5, bins = 8 8 8
  2 neighbor lists, perpetual/occasional/extra = 1 1 0
  (1) command delete_atoms, occasional
      attributes: full, newton off
      pair build: full/bin
      stencil: full/bin/3d
      bin: standard
  (2) pair lj/charmm/coul/long, perpetual
      attributes: half, newton off
      pair build: half/bin/newtoff
      stencil: full/bin/3d
      bin: standard
WARNING: Ignoring 'compress yes' for molecular system (src/delete_atoms.cpp:141)
Deleted 0 atoms, new total = 840
Deleted 0 bonds, new total = 840
Deleted 0 angles, new total = 1260
Deleted 0 dihedrals, new total = 2040
Deleted 0 impropers, new total = 990
PPPM initialization ...
  using 12-bit tables for long-range coulomb (src/kspace.cpp:342)
  G vector (1/distance) = 0.24151373
  grid = 15 15 15
  stencil order = 5
  estimated absolute RMS force accuracy = 0.028251718
  estimated relative force accuracy = 8.507921e-05
  using double precision KISS FFT
  3d grid and FFT values/proc = 2197 512
Generated 153 of 153 mixed pair_coeff terms from sixthpower mixing rule
Neighbor list info ...
  update: every = 1 steps, delay = 0 steps, check = yes
  max neighbors/atom: 2000, page size: 100000
  master list distance cutoff = 11
  ghost atom cutoff = 11
  binsize = 5.5, bins = 8 8 8
  1 neighbor lists, perpetual/occasional/extra = 1 0 0
  (1) pair lj/charmm/coul/long, perpetual
      attributes: half, newton off
      pair build: half/bin/newtoff
      stencil: full/bin/3d
      bin: standard
Per MPI rank memory allocation (min/avg/max) = 20.89 | 21.16 | 21.55 Mbytes
   Step          Temp          E_pair         E_mol          TotEng         Press     
         0   0              742956.44      6559.1437      749515.59      2787808      
Loop time of 1.6448e-05 on 8 procs for 0 steps with 840 atoms

89.7% CPU use with 8 MPI tasks x no OpenMP threads

MPI task timing breakdown:
Section |  min time  |  avg time  |  max time  |%varavg| %total
---------------------------------------------------------------
Pair    | 0          | 0          | 0          |   0.0 |  0.00
Bond    | 0          | 0          | 0          |   0.0 |  0.00
Kspace  | 0          | 0          | 0          |   0.0 |  0.00
Neigh   | 0          | 0          | 0          |   0.0 |  0.00
Comm    | 0          | 0          | 0          |   0.0 |  0.00
Output  | 0          | 0          | 0          |   0.0 |  0.00
Modify  | 0          | 0          | 0          |   0.0 |  0.00
Other   |            | 1.645e-05  |            |       |100.00

Nlocal:            105 ave         165 max          31 min
Histogram: 1 0 0 1 1 3 0 0 0 2
Nghost:         806.25 ave         859 max         762 min
Histogram: 1 0 1 2 1 0 2 0 0 1
Neighs:        5956.62 ave        9297 max        1799 min
Histogram: 1 0 1 2 0 0 0 2 0 2

Total # of neighbors = 47653
Ave neighs/atom = 56.729762
Ave special neighs/atom = 8.6428571
Neighbor list builds = 0
Dangerous builds = 0
Resetting atom IDs ...
PPPM initialization ...
  using 12-bit tables for long-range coulomb (src/kspace.cpp:342)
  G vector (1/distance) = 0.24151373
  grid = 15 15 15
  stencil order = 5
  estimated absolute RMS force accuracy = 0.028251718
  estimated relative force accuracy = 8.507921e-05
  using double precision KISS FFT
  3d grid and FFT values/proc = 2197 512
Generated 153 of 153 mixed pair_coeff terms from sixthpower mixing rule
Finding 1-2 1-3 1-4 neighbors ...
  special bond factors lj:    0        0        0       
  special bond factors coul:  0        0        0       
     3 = max # of 1-2 neighbors
     6 = max # of 1-3 neighbors
    12 = max # of 1-4 neighbors
    14 = max # of special neighbors
  special bonds CPU = 0.001 seconds
PPPM initialization ...
  using 12-bit tables for long-range coulomb (src/kspace.cpp:342)
  G vector (1/distance) = 0.24151373
  grid = 15 15 15
  stencil order = 5
  estimated absolute RMS force accuracy = 0.028251718
  estimated relative force accuracy = 8.507921e-05
  using double precision KISS FFT
  3d grid and FFT values/proc = 2197 512
Generated 153 of 153 mixed pair_coeff terms from sixthpower mixing rule
Per MPI rank memory allocation (min/avg/max) = 22.02 | 22.28 | 22.68 Mbytes
   Step          Temp          E_pair         E_mol          TotEng         Press     
         0   0              742956.44      6559.1437      749515.59      2787808      
       436   0              524.16059      427.69513      951.85572     -41.077641    
Loop time of 0.516412 on 8 procs for 436 steps with 840 atoms

97.1% CPU use with 8 MPI tasks x no OpenMP threads

Minimization stats:
  Stopping criterion = energy tolerance
  Energy initial, next-to-last, final = 
      749515.586381167   951.865157259685   951.855715896747
  Force two-norm initial, final = 8120477 11.954242
  Force max component initial, final = 4123878.1 1.9276816
  Final line search alpha, max atom move = 0.089499601 0.17252673
  Iterations, force evaluations = 436 860

MPI task timing breakdown:
Section |  min time  |  avg time  |  max time  |%varavg| %total
---------------------------------------------------------------
Pair    | 0.027705   | 0.084664   | 0.12492    |  10.9 | 16.39
Bond    | 0.0096939  | 0.027615   | 0.041204   |   5.6 |  5.35
Kspace  | 0.32246    | 0.37494    | 0.44916    |   6.5 | 72.61
Neigh   | 0.001032   | 0.0010384  | 0.0010451  |   0.0 |  0.20
Comm    | 0.015921   | 0.017221   | 0.018126   |   0.6 |  3.33
Output  | 0          | 0          | 0          |   0.0 |  0.00
Modify  | 0          | 0          | 0          |   0.0 |  0.00
Other   |            | 0.01093    |            |       |  2.12

Nlocal:            105 ave         164 max          30 min
Histogram: 1 0 0 1 1 2 1 0 0 2
Nghost:          807.5 ave         864 max         762 min
Histogram: 1 1 1 1 1 0 2 0 0 1
Neighs:        5964.75 ave        9251 max        1723 min
Histogram: 1 0 0 2 1 0 0 2 0 2

Total # of neighbors = 47718
Ave neighs/atom = 56.807143
Ave special neighs/atom = 8.6428571
Neighbor list builds = 2
Dangerous builds = 0
PPPM initialization ...
  using 12-bit tables for long-range coulomb (src/kspace.cpp:342)
  G vector (1/distance) = 0.24151373
  grid = 15 15 15
  stencil order = 5
  estimated absolute RMS force accuracy = 0.028251718
  estimated relative force accuracy = 8.507921e-05
  using double precision KISS FFT
  3d grid and FFT values/proc = 2197 512
Generated 153 of 153 mixed pair_coeff terms from sixthpower mixing rule
Per MPI rank memory allocation (min/avg/max) = 22.02 | 22.29 | 22.68 Mbytes
   Step          Temp          E_pair         E_mol          TotEng         Press     
       436   0              524.16059      427.69513      951.85572     -41.077641    
      1636   0              169.95903      433.75869      603.71772     -24.151596    
Loop time of 1.74823 on 8 procs for 1200 steps with 840 atoms

96.8% CPU use with 8 MPI tasks x no OpenMP threads

Minimization stats:
  Stopping criterion = linesearch alpha is zero
  Energy initial, next-to-last, final = 
      951.855715896771   603.717720834714   603.717720834714
  Force two-norm initial, final = 11.954242 13.188835
  Force max component initial, final = 1.9276816 2.7084113
  Final line search alpha, max atom move = 7.0141856e-11 1.8997299e-10
  Iterations, force evaluations = 1200 2450

MPI task timing breakdown:
Section |  min time  |  avg time  |  max time  |%varavg| %total
---------------------------------------------------------------
Pair    | 0.038826   | 0.31803    | 0.51803    |  27.9 | 18.19
Bond    | 0.011809   | 0.076033   | 0.12098    |  11.6 |  4.35
Kspace  | 1.0275     | 1.2486     | 1.59       |  16.7 | 71.42
Neigh   | 0.020688   | 0.020746   | 0.020794   |   0.0 |  1.19
Comm    | 0.041356   | 0.043027   | 0.045402   |   0.6 |  2.46
Output  | 0.00020171 | 0.00025656 | 0.00029717 |   0.0 |  0.01
Modify  | 0          | 0          | 0          |   0.0 |  0.00
Other   |            | 0.04154    |            |       |  2.38

Nlocal:            105 ave         165 max           5 min
Histogram: 1 0 0 0 2 2 0 0 0 3
Nghost:          790.5 ave         893 max         727 min
Histogram: 3 0 0 0 2 2 0 0 0 1
Neighs:        8535.75 ave       14538 max         285 min
Histogram: 1 0 1 0 0 2 1 0 2 1

Total # of neighbors = 68286
Ave neighs/atom = 81.292857
Ave special neighs/atom = 8.6428571
Neighbor list builds = 32
Dangerous builds = 0
System init for write_data ...
PPPM initialization ...
  using 12-bit tables for long-range coulomb (src/kspace.cpp:342)
  G vector (1/distance) = 0.24151373
  grid = 15 15 15
  stencil order = 5
  estimated absolute RMS force accuracy = 0.028251718
  estimated relative force accuracy = 8.507921e-05
  using double precision KISS FFT
  3d grid and FFT values/proc = 2197 512
Generated 153 of 153 mixed pair_coeff terms from sixthpower mixing rule
Read molecule template mol1:
this is a molecule template for: initial mpdtmc crosslink, pre-reacting
  1 molecules
  0 fragments
  20 atoms with max type 18
  18 bonds with max type 18
  24 angles with max type 25
  25 dihedrals with max type 31
  7 impropers with max type 9
Read molecule template mol2:
this is a molecule template for: initial mpdtmc crosslink, post-reacting
  1 molecules
  0 fragments
  20 atoms with max type 18
  17 bonds with max type 13
  24 angles with max type 14
  27 dihedrals with max type 21
  8 impropers with max type 7
60 atoms in group NUM_AMIDE
MAX_BONDS = 60
dynamic group bond_react_MASTER_group defined
dynamic group statted_grp_REACT defined
==================================Current bonds formed = 0 Minimum bonds desired = 55.8=======================================
==================================NVT PA POLYMERIZATION RUN: 300 C===============================

CITE-CITE-CITE-CITE-CITE-CITE-CITE-CITE-CITE-CITE-CITE-CITE-CITE

Your simulation uses code contributions which should be cited:

- fix bond/react: reacter.org doi:10.1016/j.polymer.2017.09.038, doi:10.1021/acs.macromol.0c02012, doi:10.1016/j.cpc.2024.109287

@Article{Gissinger17,
 author = {J. R. Gissinger and B. D. Jensen and K. E. Wise},
 title = {Modeling Chemical Reactions in Classical Molecular Dynamics Simulations},
 journal = {Polymer},
 year =    2017,
 volume =  128,
 pages =   {211--217}
}

@Article{Gissinger20,
 author = {J. R. Gissinger, B. D. Jensen, K. E. Wise},
 title = {{REACTER}: A Heuristic Method for Reactive Molecular Dynamics},
 journal = {Macromolecules},
 year =    2020,
 volume =  53,
 number =  22,
 pages =   {9953--9961}
}

@Article{Gissinger24,
 author = {J. R. Gissinger, B. D. Jensen, K. E. Wise},
 title = {Molecular Modeling of Reactive Systems with REACTER},
 journal = {Computer Physics Communications},
 year =    2024,
 volume =  304,
 number =  109287
}

CITE-CITE-CITE-CITE-CITE-CITE-CITE-CITE-CITE-CITE-CITE-CITE-CITE

PPPM initialization ...
  using 12-bit tables for long-range coulomb (src/kspace.cpp:342)
  G vector (1/distance) = 0.24151373
  grid = 15 15 15
  stencil order = 5
  estimated absolute RMS force accuracy = 0.028251718
  estimated relative force accuracy = 8.507921e-05
  using double precision KISS FFT
  3d grid and FFT values/proc = 2197 512
Generated 153 of 153 mixed pair_coeff terms from sixthpower mixing rule
Neighbor list info ...
  update: every = 1 steps, delay = 0 steps, check = yes
  max neighbors/atom: 2000, page size: 100000
  master list distance cutoff = 11
  ghost atom cutoff = 11
  binsize = 5.5, bins = 8 8 8
  2 neighbor lists, perpetual/occasional/extra = 1 1 0
  (1) pair lj/charmm/coul/long, perpetual
      attributes: half, newton off
      pair build: half/bin/newtoff
      stencil: full/bin/3d
      bin: standard
  (2) fix bond/react, occasional, copy from (1)
      attributes: half, newton off
      pair build: copy
      stencil: none
      bin: none
Per MPI rank memory allocation (min/avg/max) = 21.31 | 21.61 | 21.97 Mbytes
   Step          Temp          Press         Density       f_PArxn[1]  
      1636   300            446.30855      0.19483657     0            
WARNING: System is not charge neutral, net charge = 0.7065 (src/kspace.cpp:327)
      1700   361.53047     -2065.087       0.18154934     16           
      1800   450.42802     -6029.5726      0.16992302     30           
      1900   506.25249     -827.84545      0.16577076     35           
      2000   452.30302     -3528.4337      0.16494031     36           
      2100   406.03628      132.87335      0.16494031     36           
      2200   298.89926     -4763.4315      0.16410985     37           
      2300   315.08104     -33.125426      0.16410985     37           
      2400   288.60104      134.20671      0.16410985     37           
      2500   262.07331     -14.165444      0.16410985     37           
      2600   249.68998     -5289.5472      0.1632794      38           
      2636   279.63606     -883.552        0.1632794      38           
Loop time of 0.736453 on 8 procs for 1000 steps with 764 atoms

Performance: 117.319 ns/day, 0.205 hours/ns, 1357.860 timesteps/s, 1.037 Matom-step/s
96.6% CPU use with 8 MPI tasks x no OpenMP threads

MPI task timing breakdown:
Section |  min time  |  avg time  |  max time  |%varavg| %total
---------------------------------------------------------------
Pair    | 0.0022543  | 0.082819   | 0.14085    |  15.1 | 11.25
Bond    | 0.00074291 | 0.026123   | 0.041546   |   7.8 |  3.55
Kspace  | 0.33413    | 0.39191    | 0.47072    |   6.9 | 53.22
Neigh   | 0.029323   | 0.029469   | 0.029615   |   0.1 |  4.00
Comm    | 0.018355   | 0.018748   | 0.019306   |   0.2 |  2.55
Output  | 0.000404   | 0.00047302 | 0.00062729 |   0.0 |  0.06
Modify  | 0.1698     | 0.18435    | 0.21096    |   2.9 | 25.03
Other   |            | 0.002558   |            |       |  0.35

Nlocal:           95.5 ave         158 max           3 min
Histogram: 1 0 0 0 2 2 0 0 2 1
Nghost:         717.25 ave         818 max         647 min
Histogram: 1 1 1 0 2 2 0 0 0 1
Neighs:         6512.5 ave       10962 max         195 min
Histogram: 1 0 1 1 0 1 1 0 1 2

Total # of neighbors = 52100
Ave neighs/atom = 68.193717
Ave special neighs/atom = 9.8010471
Neighbor list builds = 59
Dangerous builds = 0
PPPM initialization ...
  using 12-bit tables for long-range coulomb (src/kspace.cpp:342)
  G vector (1/distance) = 0.24151373
  grid = 15 15 15
  stencil order = 5
  estimated absolute RMS force accuracy = 0.029416861
  estimated relative force accuracy = 8.8588003e-05
  using double precision KISS FFT
  3d grid and FFT values/proc = 2197 512
Generated 153 of 153 mixed pair_coeff terms from sixthpower mixing rule
WARNING: Inconsistent image flags (src/domain.cpp:1051)
Per MPI rank memory allocation (min/avg/max) = 22.25 | 22.55 | 22.92 Mbytes
   Step          Temp          Press         Density       f_PArxn[1]  
      2636   307.48972     -883.552        0.1632794      38           
      2700   320.25792     -15.399368      0.16958373     38           
      2800   433.49574     -532.97464      0.20123034     39           
      2900   461.72997     -997.09453      0.26152261     40           
      3000   403.27794     -575.74093      0.27419042     40           
      3100   322.91009      391.64324      0.27621733     40           
      3200   285.63992      414.41998      0.28649443     40           
      3300   279.66015      304.35478      0.2961506      40           
      3400   301.13029     -9.709461       0.31613251     40           
      3500   308.68108     -762.54075      0.33326808     40           
      3600   310.28659     -10701.66       0.35489703     41           
      3636   419.45855     -1556.7045      0.41154555     41           
Loop time of 1.00794 on 8 procs for 1000 steps with 758 atoms

Performance: 85.720 ns/day, 0.280 hours/ns, 992.126 timesteps/s, 752.031 katom-step/s
95.1% CPU use with 8 MPI tasks x no OpenMP threads

MPI task timing breakdown:
Section |  min time  |  avg time  |  max time  |%varavg| %total
---------------------------------------------------------------
Pair    | 0.033254   | 0.15106    | 0.28152    |  19.6 | 14.99
Bond    | 0.01136    | 0.040201   | 0.06733    |   8.3 |  3.99
Kspace  | 0.36111    | 0.51968    | 0.66679    |  12.9 | 51.56
Neigh   | 0.050309   | 0.05085    | 0.051609   |   0.2 |  5.04
Comm    | 0.022147   | 0.023133   | 0.024217   |   0.5 |  2.30
Output  | 0.00041362 | 0.00066919 | 0.00089517 |   0.0 |  0.07
Modify  | 0.21952    | 0.21965    | 0.21987    |   0.0 | 21.79
Other   |            | 0.002689   |            |       |  0.27

Nlocal:          94.75 ave         168 max          52 min
Histogram: 1 2 1 1 1 1 0 0 0 1
Nghost:        1263.25 ave        1380 max        1111 min
Histogram: 1 0 0 1 0 4 0 0 1 1
Neighs:        12072.2 ave       22835 max        5534 min
Histogram: 1 2 1 0 2 1 0 0 0 1

Total # of neighbors = 96578
Ave neighs/atom = 127.41161
Ave special neighs/atom = 9.9023747
Neighbor list builds = 62
Dangerous builds = 0
Resetting atom IDs ...
PPPM initialization ...
  using 12-bit tables for long-range coulomb (src/kspace.cpp:342)
  G vector (1/distance) = 0.24970808
  grid = 12 12 12
  stencil order = 5
  estimated absolute RMS force accuracy = 0.034086155
  estimated relative force accuracy = 0.00010264944
  using double precision KISS FFT
  3d grid and FFT values/proc = 1331 288
Generated 153 of 153 mixed pair_coeff terms from sixthpower mixing rule
Finding 1-2 1-3 1-4 neighbors ...
  special bond factors lj:    0        0        0       
  special bond factors coul:  0        0        0       
     3 = max # of 1-2 neighbors
     6 = max # of 1-3 neighbors
    12 = max # of 1-4 neighbors
    14 = max # of special neighbors
  special bonds CPU = 0.002 seconds
==================================Current bonds formed = 41 Minimum bonds desired = 55.8=======================================
==================================NVT PA POLYMERIZATION RUN: 300 C===============================
PPPM initialization ...
  using 12-bit tables for long-range coulomb (src/kspace.cpp:342)
  G vector (1/distance) = 0.24970808
  grid = 12 12 12
  stencil order = 5
  estimated absolute RMS force accuracy = 0.034086155
  estimated relative force accuracy = 0.00010264944
  using double precision KISS FFT
  3d grid and FFT values/proc = 1331 288
Generated 153 of 153 mixed pair_coeff terms from sixthpower mixing rule
WARNING: Inconsistent image flags (src/domain.cpp:1051)
Per MPI rank memory allocation (min/avg/max) = 22.28 | 22.58 | 22.96 Mbytes
   Step          Temp          Press         Density       f_PArxn[1]  
      3636   300           -2000.4889      0.41154555     41           
      3700   334.41662     -3049.8651      0.40941996     42           
      3800   373.12449      2477.913       0.40941996     42           
      3900   343.22985      690.55068      0.40941996     42           
      4000   314.11187     -752.07273      0.40941996     42           
      4100   290.3922       1894.0633      0.40941996     42           
      4200   285.69092      513.60607      0.40941996     42           
      4300   293.49541     -10050.47       0.40729438     43           
      4400   356.19294      190.92395      0.40729438     43           
      4500   313.36752     -3063.2699      0.40516879     44           
      4600   358.25679      2494.1449      0.40516879     44           
      4636   322.51997      376.27534      0.40516879     44           
Loop time of 0.882997 on 8 procs for 1000 steps with 752 atoms

Performance: 97.849 ns/day, 0.245 hours/ns, 1132.506 timesteps/s, 851.645 katom-step/s
95.9% CPU use with 8 MPI tasks x no OpenMP threads

MPI task timing breakdown:
Section |  min time  |  avg time  |  max time  |%varavg| %total
---------------------------------------------------------------
Pair    | 0.057193   | 0.13967    | 0.26192    |  15.8 | 15.82
Bond    | 0.016905   | 0.02888    | 0.046238   |   5.0 |  3.27
Kspace  | 0.28787    | 0.41208    | 0.49366    |   9.3 | 46.67
Neigh   | 0.053854   | 0.05425    | 0.054642   |   0.1 |  6.14
Comm    | 0.024126   | 0.024941   | 0.026105   |   0.4 |  2.82
Output  | 0.00053829 | 0.00061853 | 0.00073825 |   0.0 |  0.07
Modify  | 0.20408    | 0.21972    | 0.2328     |   1.8 | 24.88
Other   |            | 0.002846   |            |       |  0.32

Nlocal:             94 ave         173 max          34 min
Histogram: 1 0 0 4 1 1 0 0 0 1
Nghost:        1263.25 ave        1425 max        1091 min
Histogram: 1 0 0 1 2 2 0 0 1 1
Neighs:        12687.8 ave       24800 max        3828 min
Histogram: 1 0 1 2 2 1 0 0 0 1

Total # of neighbors = 101502
Ave neighs/atom = 134.97606
Ave special neighs/atom = 10.005319
Neighbor list builds = 53
Dangerous builds = 0
PPPM initialization ...
  using 12-bit tables for long-range coulomb (src/kspace.cpp:342)
  G vector (1/distance) = 0.24970816
  grid = 12 12 12
  stencil order = 5
  estimated absolute RMS force accuracy = 0.03420715
  estimated relative force accuracy = 0.00010301382
  using double precision KISS FFT
  3d grid and FFT values/proc = 1331 288
Generated 153 of 153 mixed pair_coeff terms from sixthpower mixing rule
WARNING: Inconsistent image flags (src/domain.cpp:1051)
Per MPI rank memory allocation (min/avg/max) = 22.28 | 22.59 | 22.96 Mbytes
   Step          Temp          Press         Density       f_PArxn[1]  
      4636   325.0967       376.27535      0.40516879     44           
      4700   353.34106      258.41442      0.41490247     44           
      4800   399.75518     -1325.0198      0.49815417     45           
      4900   392.9905      -1071.6754      0.52895993     45           
      5000   363.49101      1191.9405      0.51218615     45           
      5100   351.15736     -12927.956      0.55361993     47           
      5200   443.51749     -1001.5128      0.64839272     47           
      5300   343.33652      463.56739      0.60822857     47           
      5400   287.06538     -491.96649      0.60566591     47           
      5500   270.99363     -10922.418      0.56683648     48           
      5600   355.4864       906.55589      0.66601172     48           
      5636   338.35669      931.52218      0.6718637      48           
Loop time of 1.32116 on 8 procs for 1000 steps with 744 atoms

Performance: 65.397 ns/day, 0.367 hours/ns, 756.908 timesteps/s, 563.140 katom-step/s
95.7% CPU use with 8 MPI tasks x no OpenMP threads

MPI task timing breakdown:
Section |  min time  |  avg time  |  max time  |%varavg| %total
---------------------------------------------------------------
Pair    | 0.096753   | 0.2657     | 0.42861    |  17.7 | 20.11
Bond    | 0.019016   | 0.042053   | 0.061737   |   6.0 |  3.18
Kspace  | 0.41653    | 0.60125    | 0.79412    |  13.3 | 45.51
Neigh   | 0.083754   | 0.084643   | 0.085445   |   0.2 |  6.41
Comm    | 0.028192   | 0.030856   | 0.034384   |   1.1 |  2.34
Output  | 0.0010308  | 0.0011052  | 0.0012349  |   0.2 |  0.08
Modify  | 0.28948    | 0.29105    | 0.29186    |   0.2 | 22.03
Other   |            | 0.004505   |            |       |  0.34

Nlocal:             93 ave         127 max          49 min
Histogram: 1 0 1 0 0 3 0 1 1 1
Nghost:         1750.5 ave        1939 max        1567 min
Histogram: 1 0 0 2 0 4 0 0 0 1
Neighs:        19477.2 ave       27723 max        9869 min
Histogram: 1 0 0 1 1 2 1 1 0 1

Total # of neighbors = 155818
Ave neighs/atom = 209.4328
Ave special neighs/atom = 10.145161
Neighbor list builds = 67
Dangerous builds = 0
Resetting atom IDs ...
PPPM initialization ...
  using 12-bit tables for long-range coulomb (src/kspace.cpp:342)
  G vector (1/distance) = 0.24912906
  grid = 10 10 10
  stencil order = 5
  estimated absolute RMS force accuracy = 0.045769669
  estimated relative force accuracy = 0.000137834
  using double precision KISS FFT
  3d grid and FFT values/proc = 1000 200
Generated 153 of 153 mixed pair_coeff terms from sixthpower mixing rule
Finding 1-2 1-3 1-4 neighbors ...
  special bond factors lj:    0        0        0       
  special bond factors coul:  0        0        0       
     3 = max # of 1-2 neighbors
     6 = max # of 1-3 neighbors
    12 = max # of 1-4 neighbors
    14 = max # of special neighbors
  special bonds CPU = 0.000 seconds
==================================Current bonds formed = 48 Minimum bonds desired = 55.8=======================================
==================================NVT PA POLYMERIZATION RUN: 300 C===============================
PPPM initialization ...
  using 12-bit tables for long-range coulomb (src/kspace.cpp:342)
  G vector (1/distance) = 0.24912906
  grid = 10 10 10
  stencil order = 5
  estimated absolute RMS force accuracy = 0.045769669
  estimated relative force accuracy = 0.000137834
  using double precision KISS FFT
  3d grid and FFT values/proc = 1000 200
Generated 153 of 153 mixed pair_coeff terms from sixthpower mixing rule
WARNING: Inconsistent image flags (src/domain.cpp:1051)
Per MPI rank memory allocation (min/avg/max) = 22.33 | 22.65 | 22.98 Mbytes
   Step          Temp          Press         Density       f_PArxn[1]  
      5636   300            679.3103       0.6718637      48           
      5700   308.17522     -89.861185      0.6718637      48           
      5800   303.54968     -6388.1313      0.6718637      48           
      5900   308.11273     -1059.2545      0.6718637      48           
      6000   299.40507      1045.4802      0.6718637      48           
      6100   315.34809     -2393.1997      0.6718637      48           
      6200   295.58623      2271.9806      0.6718637      48           
      6300   297.75038     -498.22225      0.6718637      48           
      6400   296.45076      1073.0701      0.6718637      48           
      6500   343.32399     -5414.6842      0.66826344     49           
      6600   363.58029     -1086.6586      0.66826344     49           
      6636   339.1313       81.865168      0.66826344     49           
Loop time of 1.09172 on 8 procs for 1000 steps with 742 atoms

Performance: 79.141 ns/day, 0.303 hours/ns, 915.983 timesteps/s, 679.660 katom-step/s
96.6% CPU use with 8 MPI tasks x no OpenMP threads

MPI task timing breakdown:
Section |  min time  |  avg time  |  max time  |%varavg| %total
---------------------------------------------------------------
Pair    | 0.14863    | 0.23151    | 0.33607    |  11.8 | 21.21
Bond    | 0.021527   | 0.028894   | 0.038969   |   3.3 |  2.65
Kspace  | 0.32131    | 0.42791    | 0.51043    |   8.7 | 39.20
Neigh   | 0.054868   | 0.055024   | 0.055111   |   0.0 |  5.04
Comm    | 0.025994   | 0.026545   | 0.027077   |   0.3 |  2.43
Output  | 0.0020714  | 0.0021444  | 0.0022774  |   0.1 |  0.20
Modify  | 0.30785    | 0.31684    | 0.32473    |   1.0 | 29.02
Other   |            | 0.00285    |            |       |  0.26

Nlocal:          92.75 ave         134 max          59 min
Histogram: 1 1 1 1 1 1 0 0 1 1
Nghost:        1749.38 ave        1865 max        1577 min
Histogram: 1 0 0 2 1 0 0 1 1 2
Neighs:        19849.5 ave       27768 max       13050 min
Histogram: 1 0 1 2 2 0 0 0 1 1

Total # of neighbors = 158796
Ave neighs/atom = 214.01078
Ave special neighs/atom = 10.180593
Neighbor list builds = 40
Dangerous builds = 0
PPPM initialization ...
  using 12-bit tables for long-range coulomb (src/kspace.cpp:342)
  G vector (1/distance) = 0.24912937
  grid = 10 10 10
  stencil order = 5
  estimated absolute RMS force accuracy = 0.04583456
  estimated relative force accuracy = 0.00013802942
  using double precision KISS FFT
  3d grid and FFT values/proc = 1000 200
Generated 153 of 153 mixed pair_coeff terms from sixthpower mixing rule
WARNING: Inconsistent image flags (src/domain.cpp:1051)
Per MPI rank memory allocation (min/avg/max) = 22.33 | 22.65 | 22.98 Mbytes
   Step          Temp          Press         Density       f_PArxn[1]  
      6636   340.04663      81.865204      0.66826344     49           
      6700   312.92682     -787.20947      0.65606477     49           
      6800   300.84934      730.17088      0.64752279     49           
      6900   307.54833      379.0442       0.6153017      49           
      7000   297.03821      243.90252      0.60859037     49           
      7100   300.28459     -950.56609      0.62601548     49           
      7200   293.20293      578.56726      0.6551056      49           
      7300   298.14589      1225.0806      0.67501075     49           
      7400   307.93535      524.17213      0.6825808      49           
      7500   319.99973      353.77368      0.68625601     49           
      7600   303.7192      -438.44091      0.70741213     49           
      7636   297.58863      1317.2194      0.71717792     49           
Loop time of 1.34531 on 8 procs for 1000 steps with 742 atoms

Performance: 64.223 ns/day, 0.374 hours/ns, 743.326 timesteps/s, 551.548 katom-step/s
96.9% CPU use with 8 MPI tasks x no OpenMP threads

MPI task timing breakdown:
Section |  min time  |  avg time  |  max time  |%varavg| %total
---------------------------------------------------------------
Pair    | 0.17685    | 0.30465    | 0.43093    |  15.1 | 22.65
Bond    | 0.023694   | 0.040639   | 0.057375   |   5.4 |  3.02
Kspace  | 0.421      | 0.56239    | 0.70593    |  12.4 | 41.80
Neigh   | 0.069345   | 0.069448   | 0.069562   |   0.0 |  5.16
Comm    | 0.027163   | 0.028137   | 0.029071   |   0.3 |  2.09
Output  | 0.00078717 | 0.0008232  | 0.00091012 |   0.0 |  0.06
Modify  | 0.33376    | 0.33497    | 0.33647    |   0.2 | 24.90
Other   |            | 0.004238   |            |       |  0.32

Nlocal:          92.75 ave         134 max          53 min
Histogram: 1 0 2 0 1 1 1 1 0 1
Nghost:        1858.75 ave        2039 max        1664 min
Histogram: 2 0 0 0 2 1 1 0 0 2
Neighs:        21486.6 ave       31416 max       12288 min
Histogram: 1 1 1 0 0 2 1 1 0 1

Total # of neighbors = 171893
Ave neighs/atom = 231.66173
Ave special neighs/atom = 10.180593
Neighbor list builds = 48
Dangerous builds = 0
Resetting atom IDs ...
PPPM initialization ...
  using 12-bit tables for long-range coulomb (src/kspace.cpp:342)
  G vector (1/distance) = 0.25125226
  grid = 10 10 10
  stencil order = 5
  estimated absolute RMS force accuracy = 0.043571309
  estimated relative force accuracy = 0.0001312137
  using double precision KISS FFT
  3d grid and FFT values/proc = 1000 200
Generated 153 of 153 mixed pair_coeff terms from sixthpower mixing rule
Finding 1-2 1-3 1-4 neighbors ...
  special bond factors lj:    0        0        0       
  special bond factors coul:  0        0        0       
     3 = max # of 1-2 neighbors
     6 = max # of 1-3 neighbors
    12 = max # of 1-4 neighbors
    14 = max # of special neighbors
  special bonds CPU = 0.001 seconds
==================================Current bonds formed = 49 Minimum bonds desired = 55.8=======================================
==================================NVT PA POLYMERIZATION RUN: 300 C===============================
PPPM initialization ...
  using 12-bit tables for long-range coulomb (src/kspace.cpp:342)
  G vector (1/distance) = 0.25125226
  grid = 10 10 10
  stencil order = 5
  estimated absolute RMS force accuracy = 0.043571309
  estimated relative force accuracy = 0.0001312137
  using double precision KISS FFT
  3d grid and FFT values/proc = 1000 200
Generated 153 of 153 mixed pair_coeff terms from sixthpower mixing rule
WARNING: Inconsistent image flags (src/domain.cpp:1051)
Per MPI rank memory allocation (min/avg/max) = 22.33 | 22.65 | 22.99 Mbytes
   Step          Temp          Press         Density       f_PArxn[1]  
      7636   300            1333.2038      0.71717792     49           
      7700   291.12605      878.99669      0.71717792     49           
      7800   309.49591     -2563.2931      0.71717792     49           
      7900   298.68016     -21555.072      0.71331413     50           
      8000   402.95683     -1921.0854      0.71331413     50           
      8100   323.0523      -548.78883      0.71331413     50           
      8200   320.30852     -353.32818      0.71331413     50           
      8300   298.44152     -2359.821       0.71331413     50           
      8400   276.91163     -2089.1151      0.71331413     50           
      8500   291.60534     -267.99074      0.71331413     50           
      8600   300.54753     -1724.5273      0.71331413     50           
      8636   308.61242     -734.16523      0.71331413     50           
Loop time of 1.18539 on 8 procs for 1000 steps with 740 atoms

Performance: 72.888 ns/day, 0.329 hours/ns, 843.607 timesteps/s, 624.269 katom-step/s
95.9% CPU use with 8 MPI tasks x no OpenMP threads

MPI task timing breakdown:
Section |  min time  |  avg time  |  max time  |%varavg| %total
---------------------------------------------------------------
Pair    | 0.1498     | 0.25224    | 0.34613    |  11.4 | 21.28
Bond    | 0.017385   | 0.027912   | 0.035868   |   3.5 |  2.35
Kspace  | 0.33523    | 0.43009    | 0.53357    |   8.9 | 36.28
Neigh   | 0.05844    | 0.058782   | 0.058946   |   0.1 |  4.96
Comm    | 0.027137   | 0.029587   | 0.030775   |   0.9 |  2.50
Output  | 0.00072679 | 0.00079118 | 0.00092358 |   0.0 |  0.07
Modify  | 0.37507    | 0.38334    | 0.3931     |   0.9 | 32.34
Other   |            | 0.002645   |            |       |  0.22

Nlocal:           92.5 ave         126 max          70 min
Histogram: 1 1 1 0 3 1 0 0 0 1
Nghost:        1860.38 ave        2025 max        1696 min
Histogram: 2 0 0 0 2 2 0 0 1 1
Neighs:        21499.4 ave       29952 max       15957 min
Histogram: 2 0 0 3 1 1 0 0 0 1

Total # of neighbors = 171995
Ave neighs/atom = 232.42568
Ave special neighs/atom = 10.216216
Neighbor list builds = 44
Dangerous builds = 0
PPPM initialization ...
  using 12-bit tables for long-range coulomb (src/kspace.cpp:342)
  G vector (1/distance) = 0.25125226
  grid = 10 10 10
  stencil order = 5
  estimated absolute RMS force accuracy = 0.043617623
  estimated relative force accuracy = 0.00013135318
  using double precision KISS FFT
  3d grid and FFT values/proc = 1000 200
Generated 153 of 153 mixed pair_coeff terms from sixthpower mixing rule
WARNING: Inconsistent image flags (src/domain.cpp:1051)
Per MPI rank memory allocation (min/avg/max) = 22.34 | 22.65 | 22.99 Mbytes
   Step          Temp          Press         Density       f_PArxn[1]  
      8636   309.44764     -734.16523      0.71331413     50           
      8700   311.16325     -1429.0821      0.72000301     50           
      8800   300.00127     -1653.1481      0.73430709     50           
      8900   291.67933      667.52378      0.76917515     50           
      9000   298.57897      737.6163       0.76014878     50           
      9100   308.09967     -180.16877      0.75766153     50           
      9200   301.16512     -1582.8286      0.80100498     50           
      9300   293.77393      1114.9614      0.79678468     50           
      9400   305.34393     -1747.7125      0.81673991     50           
      9500   302.68651     -974.62586      0.82868352     50           
      9600   300.69991     -934.09079      0.83550965     50           
      9636   289.82503     -1535.6611      0.8311799      50           
Loop time of 1.45428 on 8 procs for 1000 steps with 740 atoms

Performance: 59.411 ns/day, 0.404 hours/ns, 687.624 timesteps/s, 508.842 katom-step/s
96.5% CPU use with 8 MPI tasks x no OpenMP threads

MPI task timing breakdown:
Section |  min time  |  avg time  |  max time  |%varavg| %total
---------------------------------------------------------------
Pair    | 0.29838    | 0.3618     | 0.50593    |  10.0 | 24.88
Bond    | 0.034288   | 0.041208   | 0.052224   |   2.5 |  2.83
Kspace  | 0.42349    | 0.57811    | 0.64749    |   8.5 | 39.75
Neigh   | 0.055795   | 0.055927   | 0.056096   |   0.0 |  3.85
Comm    | 0.028764   | 0.03027    | 0.031851   |   0.6 |  2.08
Output  | 0.00063867 | 0.00069233 | 0.00081442 |   0.0 |  0.05
Modify  | 0.38094    | 0.38119    | 0.38146    |   0.0 | 26.21
Other   |            | 0.005086   |            |       |  0.35

Nlocal:           92.5 ave         129 max          71 min
Histogram: 1 1 2 1 1 1 0 0 0 1
Nghost:        2059.25 ave        2282 max        1882 min
Histogram: 2 0 0 2 0 2 0 1 0 1
Neighs:        25094.9 ave       36074 max       19072 min
Histogram: 1 2 1 1 2 0 0 0 0 1

Total # of neighbors = 200759
Ave neighs/atom = 271.29595
Ave special neighs/atom = 10.216216
Neighbor list builds = 36
Dangerous builds = 0
Resetting atom IDs ...
PPPM initialization ...
  using 12-bit tables for long-range coulomb (src/kspace.cpp:342)
  G vector (1/distance) = 0.25582405
  grid = 10 10 10
  stencil order = 5
  estimated absolute RMS force accuracy = 0.039022499
  estimated relative force accuracy = 0.0001175151
  using double precision KISS FFT
  3d grid and FFT values/proc = 1000 200
Generated 153 of 153 mixed pair_coeff terms from sixthpower mixing rule
Finding 1-2 1-3 1-4 neighbors ...
  special bond factors lj:    0        0        0       
  special bond factors coul:  0        0        0       
     3 = max # of 1-2 neighbors
     6 = max # of 1-3 neighbors
    12 = max # of 1-4 neighbors
    14 = max # of special neighbors
  special bonds CPU = 0.000 seconds
==================================Current bonds formed = 50 Minimum bonds desired = 55.8=======================================
==================================NVT PA POLYMERIZATION RUN: 300 C===============================
PPPM initialization ...
  using 12-bit tables for long-range coulomb (src/kspace.cpp:342)
  G vector (1/distance) = 0.25582405
  grid = 10 10 10
  stencil order = 5
  estimated absolute RMS force accuracy = 0.039022499
  estimated relative force accuracy = 0.0001175151
  using double precision KISS FFT
  3d grid and FFT values/proc = 1000 200
Generated 153 of 153 mixed pair_coeff terms from sixthpower mixing rule
WARNING: Inconsistent image flags (src/domain.cpp:1051)
Per MPI rank memory allocation (min/avg/max) = 22.35 | 22.69 | 22.99 Mbytes
   Step          Temp          Press         Density       f_PArxn[1]  
      9636   300           -1459.6491      0.8311799      50           
      9700   298.29352     -577.95745      0.8311799      50           
      9800   299.59746      154.22453      0.8311799      50           
      9900   323.70103      3036.0994      0.8311799      50           
     10000   296.83755     -972.9543       0.8311799      50           
     10100   295.98829      60.892746      0.8311799      50           
     10200   305.92177     -32.546137      0.8311799      50           
     10300   303.67761     -2032.6723      0.8311799      50           
     10400   310.1221       362.10195      0.8311799      50           
     10500   304.19137      745.38008      0.8311799      50           
     10600   303.62994     -461.01237      0.8311799      50           
     10636   302.648       -977.22467      0.8311799      50           
Loop time of 1.27708 on 8 procs for 1000 steps with 740 atoms

Performance: 67.654 ns/day, 0.355 hours/ns, 783.038 timesteps/s, 579.448 katom-step/s
96.9% CPU use with 8 MPI tasks x no OpenMP threads

MPI task timing breakdown:
Section |  min time  |  avg time  |  max time  |%varavg| %total
---------------------------------------------------------------
Pair    | 0.23684    | 0.29192    | 0.38844    |   8.4 | 22.86
Bond    | 0.02458    | 0.028369   | 0.03433    |   2.0 |  2.22
Kspace  | 0.36357    | 0.46026    | 0.51335    |   6.7 | 36.04
Neigh   | 0.04347    | 0.04358    | 0.043767   |   0.1 |  3.41
Comm    | 0.027059   | 0.028363   | 0.029227   |   0.5 |  2.22
Output  | 0.00071162 | 0.00075965 | 0.00086575 |   0.0 |  0.06
Modify  | 0.4147     | 0.4212     | 0.42578    |   0.5 | 32.98
Other   |            | 0.002631   |            |       |  0.21

Nlocal:           92.5 ave         113 max          80 min
Histogram: 2 1 0 2 1 0 1 0 0 1
Nghost:        2067.38 ave        2208 max        1966 min
Histogram: 2 0 1 1 1 1 1 0 0 1
Neighs:        24964.8 ave       30270 max       21874 min
Histogram: 2 1 2 0 0 1 1 0 0 1

Total # of neighbors = 199718
Ave neighs/atom = 269.88919
Ave special neighs/atom = 10.216216
Neighbor list builds = 28
Dangerous builds = 0
PPPM initialization ...
  using 12-bit tables for long-range coulomb (src/kspace.cpp:342)
  G vector (1/distance) = 0.25582405
  grid = 10 10 10
  stencil order = 5
  estimated absolute RMS force accuracy = 0.039022499
  estimated relative force accuracy = 0.0001175151
  using double precision KISS FFT
  3d grid and FFT values/proc = 1000 200
Generated 153 of 153 mixed pair_coeff terms from sixthpower mixing rule
WARNING: Inconsistent image flags (src/domain.cpp:1051)
Per MPI rank memory allocation (min/avg/max) = 22.35 | 22.71 | 22.99 Mbytes
   Step          Temp          Press         Density       f_PArxn[1]  
     10636   302.648       -977.22467      0.8311799      50           
     10700   295.28119      531.29723      0.84963869     50           
     10800   293.15446      1254.5866      0.87481367     50           
     10900   291.94026      3100.5573      0.88161242     50           
     11000   280.92649     -355.66528      0.90152585     50           
     11100   294.83755     -2053.8883      0.89919121     50           
     11200   303.49261      3319.4537      0.91540455     50           
     11300   298.18618     -1584.6468      0.8649006      50           
     11400   290.14575      1812.7537      0.90146615     50           
     11500   300.62614     -1352.4152      0.90403228     50           
     11600   288.98228      1036.3956      0.90693912     50           
     11636   304.03253      1181.084       0.91462872     50           
Loop time of 1.52908 on 8 procs for 1000 steps with 740 atoms

Performance: 56.505 ns/day, 0.425 hours/ns, 653.989 timesteps/s, 483.952 katom-step/s
97.0% CPU use with 8 MPI tasks x no OpenMP threads

MPI task timing breakdown:
Section |  min time  |  avg time  |  max time  |%varavg| %total
---------------------------------------------------------------
Pair    | 0.33657    | 0.40468    | 0.48228    |   7.1 | 26.47
Bond    | 0.036944   | 0.040768   | 0.048925   |   2.0 |  2.67
Kspace  | 0.50702    | 0.59209    | 0.66461    |   6.3 | 38.72
Neigh   | 0.051106   | 0.051473   | 0.051745   |   0.1 |  3.37
Comm    | 0.028144   | 0.029749   | 0.031303   |   0.7 |  1.95
Output  | 0.00056462 | 0.0006062  | 0.00072238 |   0.0 |  0.04
Modify  | 0.40643    | 0.40689    | 0.40708    |   0.0 | 26.61
Other   |            | 0.002812   |            |       |  0.18

Nlocal:           92.5 ave         109 max          81 min
Histogram: 1 2 2 0 0 1 0 0 0 2
Nghost:        2199.88 ave        2331 max        2069 min
Histogram: 1 0 2 0 2 0 1 0 1 1
Neighs:        27451.4 ave       32765 max       22963 min
Histogram: 1 1 1 2 0 0 1 0 0 2

Total # of neighbors = 219611
Ave neighs/atom = 296.77162
Ave special neighs/atom = 10.216216
Neighbor list builds = 31
Dangerous builds = 0
Resetting atom IDs ...
PPPM initialization ...
  using 12-bit tables for long-range coulomb (src/kspace.cpp:342)
  G vector (1/distance) = 0.25866605
  grid = 10 10 10
  stencil order = 5
  estimated absolute RMS force accuracy = 0.036361649
  estimated relative force accuracy = 0.00010950202
  using double precision KISS FFT
  3d grid and FFT values/proc = 1000 200
Generated 153 of 153 mixed pair_coeff terms from sixthpower mixing rule
Finding 1-2 1-3 1-4 neighbors ...
  special bond factors lj:    0        0        0       
  special bond factors coul:  0        0        0       
     3 = max # of 1-2 neighbors
     6 = max # of 1-3 neighbors
    12 = max # of 1-4 neighbors
    14 = max # of special neighbors
  special bonds CPU = 0.000 seconds
==================================Current bonds formed = 50 Minimum bonds desired = 55.8=======================================
==================================NVT PA POLYMERIZATION RUN: 300 C===============================
PPPM initialization ...
  using 12-bit tables for long-range coulomb (src/kspace.cpp:342)
  G vector (1/distance) = 0.25866605
  grid = 10 10 10
  stencil order = 5
  estimated absolute RMS force accuracy = 0.036361649
  estimated relative force accuracy = 0.00010950202
  using double precision KISS FFT
  3d grid and FFT values/proc = 1000 200
Generated 153 of 153 mixed pair_coeff terms from sixthpower mixing rule
WARNING: Inconsistent image flags (src/domain.cpp:1051)
Per MPI rank memory allocation (min/avg/max) = 22.39 | 22.77 | 23.04 Mbytes
   Step          Temp          Press         Density       f_PArxn[1]  
     11636   300            1147.8112      0.91462872     50           
     11700   296.36486      517.20198      0.91462872     50           
     11800   313.7374      -1410.347       0.91462872     50           
     11900   312.19332      4067.6281      0.91462872     50           
     12000   302.56129      443.42704      0.91462872     50           
     12100   295.05614     -187.2578       0.91462872     50           
     12200   294.88671     -211.05733      0.91462872     50           
     12300   297.56307     -1855.3025      0.91462872     50           
     12400   308.11776     -724.13887      0.91462872     50           
     12500   291.17498     -3150.7357      0.91462872     50           
     12600   311.98332     -1805.2879      0.91462872     50           
     12636   310.90648     -371.63511      0.91462872     50           
Loop time of 1.3205 on 8 procs for 1000 steps with 740 atoms

Performance: 65.430 ns/day, 0.367 hours/ns, 757.286 timesteps/s, 560.392 katom-step/s
97.1% CPU use with 8 MPI tasks x no OpenMP threads

MPI task timing breakdown:
Section |  min time  |  avg time  |  max time  |%varavg| %total
---------------------------------------------------------------
Pair    | 0.26759    | 0.31957    | 0.41758    |   9.2 | 24.20
Bond    | 0.023655   | 0.028561   | 0.036551   |   2.7 |  2.16
Kspace  | 0.38161    | 0.48142    | 0.5313     |   7.5 | 36.46
Neigh   | 0.047009   | 0.047147   | 0.047219   |   0.0 |  3.57
Comm    | 0.028817   | 0.031687   | 0.034746   |   1.4 |  2.40
Output  | 0.00067413 | 0.00071648 | 0.00082762 |   0.0 |  0.05
Modify  | 0.39916    | 0.40836    | 0.4125     |   0.7 | 30.92
Other   |            | 0.003045   |            |       |  0.23

Nlocal:           92.5 ave         111 max          77 min
Histogram: 2 0 0 1 3 0 0 0 0 2
Nghost:        2205.12 ave        2348 max        2088 min
Histogram: 2 0 1 1 1 1 0 0 0 2
Neighs:        27804.4 ave       33794 max       22147 min
Histogram: 1 1 0 2 1 1 0 0 0 2

Total # of neighbors = 222435
Ave neighs/atom = 300.58784
Ave special neighs/atom = 10.216216
Neighbor list builds = 28
Dangerous builds = 0
PPPM initialization ...
  using 12-bit tables for long-range coulomb (src/kspace.cpp:342)
  G vector (1/distance) = 0.25866605
  grid = 10 10 10
  stencil order = 5
  estimated absolute RMS force accuracy = 0.036361649
  estimated relative force accuracy = 0.00010950202
  using double precision KISS FFT
  3d grid and FFT values/proc = 1000 200
Generated 153 of 153 mixed pair_coeff terms from sixthpower mixing rule
WARNING: Inconsistent image flags (src/domain.cpp:1051)
Per MPI rank memory allocation (min/avg/max) = 22.4 | 22.77 | 23.04 Mbytes
   Step          Temp          Press         Density       f_PArxn[1]  
     12636   310.90648     -371.63511      0.91462872     50           
     12700   303.63048      206.51932      0.91551107     50           
     12800   289.91868      3612.2713      0.92721512     50           
     12900   289.9049      -1949.1516      0.92508125     50           
     13000   290.99685     -277.50495      0.92542072     50           
     13100   295.57969      2012.6832      0.90672474     50           
     13200   309.2311       1185.4177      0.91455184     50           
     13300   318.38775      1196.3333      0.93174889     50           
     13400   294.71345      142.09821      0.92989028     50           
     13500   304.89861      175.75586      0.93611207     50           
     13600   299.57504      1582.2981      0.94517522     50           
     13636   307.10972      176.61404      0.9562383      50           
Loop time of 1.56078 on 8 procs for 1000 steps with 740 atoms

Performance: 55.357 ns/day, 0.434 hours/ns, 640.706 timesteps/s, 474.123 katom-step/s
97.1% CPU use with 8 MPI tasks x no OpenMP threads

MPI task timing breakdown:
Section |  min time  |  avg time  |  max time  |%varavg| %total
---------------------------------------------------------------
Pair    | 0.37199    | 0.4244     | 0.53232    |   9.2 | 27.19
Bond    | 0.034657   | 0.040888   | 0.047859   |   2.2 |  2.62
Kspace  | 0.48124    | 0.59498    | 0.65419    |   8.2 | 38.12
Neigh   | 0.053968   | 0.054066   | 0.05417    |   0.0 |  3.46
Comm    | 0.029706   | 0.032284   | 0.033895   |   0.8 |  2.07
Output  | 0.0011866  | 0.0012236  | 0.0013176  |   0.1 |  0.08
Modify  | 0.40826    | 0.40869    | 0.40952    |   0.1 | 26.19
Other   |            | 0.004243   |            |       |  0.27

Nlocal:           92.5 ave         112 max          73 min
Histogram: 1 0 0 2 2 0 1 1 0 1
Nghost:        2259.88 ave        2408 max        2124 min
Histogram: 1 1 1 0 2 0 0 2 0 1
Neighs:        28801.6 ave       36127 max       21773 min
Histogram: 1 0 2 0 2 0 0 2 0 1

Total # of neighbors = 230413
Ave neighs/atom = 311.36892
Ave special neighs/atom = 10.216216
Neighbor list builds = 31
Dangerous builds = 0
Resetting atom IDs ...
PPPM initialization ...
  using 12-bit tables for long-range coulomb (src/kspace.cpp:342)
  G vector (1/distance) = 0.25998148
  grid = 10 10 10
  stencil order = 5
  estimated absolute RMS force accuracy = 0.035179905
  estimated relative force accuracy = 0.00010594324
  using double precision KISS FFT
  3d grid and FFT values/proc = 1000 200
Generated 153 of 153 mixed pair_coeff terms from sixthpower mixing rule
Finding 1-2 1-3 1-4 neighbors ...
  special bond factors lj:    0        0        0       
  special bond factors coul:  0        0        0       
     3 = max # of 1-2 neighbors
     6 = max # of 1-3 neighbors
    12 = max # of 1-4 neighbors
    14 = max # of special neighbors
  special bonds CPU = 0.000 seconds
==================================Current bonds formed = 50 Minimum bonds desired = 55.8=======================================
==================================NVT PA POLYMERIZATION RUN: 300 C===============================
PPPM initialization ...
  using 12-bit tables for long-range coulomb (src/kspace.cpp:342)
  G vector (1/distance) = 0.25998148
  grid = 10 10 10
  stencil order = 5
  estimated absolute RMS force accuracy = 0.035179905
  estimated relative force accuracy = 0.00010594324
  using double precision KISS FFT
  3d grid and FFT values/proc = 1000 200
Generated 153 of 153 mixed pair_coeff terms from sixthpower mixing rule
WARNING: Inconsistent image flags (src/domain.cpp:1051)
Per MPI rank memory allocation (min/avg/max) = 22.4 | 22.77 | 23.04 Mbytes
   Step          Temp          Press         Density       f_PArxn[1]  
     13636   300            115.14917      0.9562383      50           
     13700   289.29375     -1744.0866      0.9562383      50           
     13800   314.42672      1257.8814      0.9562383      50           
     13900   316.67404     -1134.6876      0.9562383      50           
     14000   305.97773      1564.8314      0.9562383      50           
     14100   293.98936     -3552.0979      0.9562383      50           
     14200   293.89238     -471.58983      0.9562383      50           
     14300   297.95222     -1695.0035      0.9562383      50           
     14400   297.08922      899.14626      0.9562383      50           
     14500   305.27256     -413.01908      0.9562383      50           
     14600   309.54413     -363.08037      0.9562383      50           
     14636   305.07225     -1539.3068      0.9562383      50           
Loop time of 1.3784 on 8 procs for 1000 steps with 740 atoms

Performance: 62.682 ns/day, 0.383 hours/ns, 725.481 timesteps/s, 536.856 katom-step/s
97.0% CPU use with 8 MPI tasks x no OpenMP threads

MPI task timing breakdown:
Section |  min time  |  avg time  |  max time  |%varavg| %total
---------------------------------------------------------------
Pair    | 0.25797    | 0.33634    | 0.42372    |   9.3 | 24.40
Bond    | 0.024749   | 0.028495   | 0.033005   |   1.9 |  2.07
Kspace  | 0.41733    | 0.50558    | 0.58383    |   7.6 | 36.68
Neigh   | 0.059407   | 0.059619   | 0.059816   |   0.1 |  4.33
Comm    | 0.028045   | 0.028223   | 0.028372   |   0.1 |  2.05
Output  | 0.00079642 | 0.00083673 | 0.00093892 |   0.0 |  0.06
Modify  | 0.4131     | 0.41661    | 0.4212     |   0.4 | 30.22
Other   |            | 0.002692   |            |       |  0.20

Nlocal:           92.5 ave         110 max          71 min
Histogram: 1 0 1 1 0 2 0 1 1 1
Nghost:        2269.62 ave        2448 max        2085 min
Histogram: 1 0 2 0 1 1 0 1 1 1
Neighs:        28955.8 ave       35925 max       21098 min
Histogram: 1 0 1 1 0 2 0 1 1 1

Total # of neighbors = 231646
Ave neighs/atom = 313.03514
Ave special neighs/atom = 10.216216
Neighbor list builds = 32
Dangerous builds = 0
PPPM initialization ...
  using 12-bit tables for long-range coulomb (src/kspace.cpp:342)
  G vector (1/distance) = 0.25998148
  grid = 10 10 10
  stencil order = 5
  estimated absolute RMS force accuracy = 0.035179905
  estimated relative force accuracy = 0.00010594324
  using double precision KISS FFT
  3d grid and FFT values/proc = 1000 200
Generated 153 of 153 mixed pair_coeff terms from sixthpower mixing rule
WARNING: Inconsistent image flags (src/domain.cpp:1051)
Per MPI rank memory allocation (min/avg/max) = 22.4 | 22.77 | 23.04 Mbytes
   Step          Temp          Press         Density       f_PArxn[1]  
     14636   305.07225     -1539.3068      0.9562383      50           
     14700   301.71432     -98.548782      0.94163557     50           
     14800   303.03523     -1046.7278      0.94805296     50           
     14900   291.62771     -661.48591      0.95636977     50           
     15000   291.66437      1324.6615      0.95178218     50           
     15100   306.9774      -13929.86       0.96309839     51           
     15200   343.30054      2814.1729      1.0128776      51           
     15300   308.26361      1947.3761      0.96223556     51           
     15400   300.09973     -2861.2644      0.96822755     51           
     15500   289.27912      105.66328      0.9937309      51           
     15600   305.21921      1461.0816      1.0013561      51           
     15636   303.05549     -1997.901       0.99464231     51           
Loop time of 1.62885 on 8 procs for 1000 steps with 738 atoms

Performance: 53.044 ns/day, 0.452 hours/ns, 613.932 timesteps/s, 453.082 katom-step/s
96.4% CPU use with 8 MPI tasks x no OpenMP threads

MPI task timing breakdown:
Section |  min time  |  avg time  |  max time  |%varavg| %total
---------------------------------------------------------------
Pair    | 0.32868    | 0.44389    | 0.5602     |  10.7 | 27.25
Bond    | 0.033262   | 0.040498   | 0.049461   |   2.4 |  2.49
Kspace  | 0.50153    | 0.62586    | 0.74814    |   9.6 | 38.42
Neigh   | 0.051879   | 0.051953   | 0.052073   |   0.0 |  3.19
Comm    | 0.02818    | 0.02914    | 0.030463   |   0.5 |  1.79
Output  | 0.000662   | 0.00070221 | 0.00080521 |   0.0 |  0.04
Modify  | 0.43387    | 0.43397    | 0.43415    |   0.0 | 26.64
Other   |            | 0.002838   |            |       |  0.17

Nlocal:          92.25 ave         114 max          79 min
Histogram: 2 1 2 0 1 0 0 0 1 1
Nghost:           2334 ave        2499 max        2182 min
Histogram: 1 1 0 2 1 1 0 0 0 2
Neighs:        30135.6 ave       38225 max       24949 min
Histogram: 2 1 2 0 0 1 0 0 1 1

Total # of neighbors = 241085
Ave neighs/atom = 326.67344
Ave special neighs/atom = 10.252033
Neighbor list builds = 32
Dangerous builds = 0
Resetting atom IDs ...
PPPM initialization ...
  using 12-bit tables for long-range coulomb (src/kspace.cpp:342)
  G vector (1/distance) = 0.26130182
  grid = 10 10 10
  stencil order = 5
  estimated absolute RMS force accuracy = 0.034061289
  estimated relative force accuracy = 0.00010257456
  using double precision KISS FFT
  3d grid and FFT values/proc = 1000 200
Generated 153 of 153 mixed pair_coeff terms from sixthpower mixing rule
Finding 1-2 1-3 1-4 neighbors ...
  special bond factors lj:    0        0        0       
  special bond factors coul:  0        0        0       
     3 = max # of 1-2 neighbors
     6 = max # of 1-3 neighbors
    12 = max # of 1-4 neighbors
    14 = max # of special neighbors
  special bonds CPU = 0.000 seconds
==================================Current bonds formed = 51 Minimum bonds desired = 55.8=======================================
==================================NVT PA POLYMERIZATION RUN: 300 C===============================
PPPM initialization ...
  using 12-bit tables for long-range coulomb (src/kspace.cpp:342)
  G vector (1/distance) = 0.26130182
  grid = 10 10 10
  stencil order = 5
  estimated absolute RMS force accuracy = 0.034061289
  estimated relative force accuracy = 0.00010257456
  using double precision KISS FFT
  3d grid and FFT values/proc = 1000 200
Generated 153 of 153 mixed pair_coeff terms from sixthpower mixing rule
WARNING: Inconsistent image flags (src/domain.cpp:1051)
Per MPI rank memory allocation (min/avg/max) = 22.4 | 22.77 | 23.04 Mbytes
   Step          Temp          Press         Density       f_PArxn[1]  
     15636   300           -2032.8856      0.99464231     51           
     15700   288.32563     -2086.7252      0.99464231     51           
     15800   299.56709     -917.21596      0.99464231     51           
     15900   310.67836     -1040.1883      0.99464231     51           
     16000   314.32431     -3272.5426      0.99464231     51           
     16100   284.1957      -95.811266      0.99464231     51           
     16200   297.76689      555.76161      0.99464231     51           
     16300   304.62998     -1291.0288      0.99464231     51           
     16400   307.47129      1197.643       0.99464231     51           
     16500   292.92219      231.55245      0.99464231     51           
     16600   300.28491     -420.30012      0.99464231     51           
     16636   287.48935      1847.4098      0.99464231     51           
Loop time of 1.37467 on 8 procs for 1000 steps with 738 atoms

Performance: 62.852 ns/day, 0.382 hours/ns, 727.449 timesteps/s, 536.858 katom-step/s
96.9% CPU use with 8 MPI tasks x no OpenMP threads

MPI task timing breakdown:
Section |  min time  |  avg time  |  max time  |%varavg| %total
---------------------------------------------------------------
Pair    | 0.25273    | 0.34696    | 0.45153    |  10.5 | 25.24
Bond    | 0.024018   | 0.028689   | 0.03569    |   2.2 |  2.09
Kspace  | 0.39301    | 0.49756    | 0.59166    |   8.8 | 36.20
Neigh   | 0.044187   | 0.04438    | 0.044575   |   0.1 |  3.23
Comm    | 0.02822    | 0.02967    | 0.031917   |   0.8 |  2.16
Output  | 0.00067358 | 0.00071456 | 0.00081771 |   0.0 |  0.05
Modify  | 0.41833    | 0.42363    | 0.42921    |   0.5 | 30.82
Other   |            | 0.00306    |            |       |  0.22

Nlocal:          92.25 ave         117 max          69 min
Histogram: 1 0 0 1 4 0 0 1 0 1
Nghost:         2332.5 ave        2527 max        2146 min
Histogram: 1 0 1 1 1 2 0 1 0 1
Neighs:        30052.2 ave       39186 max       21874 min
Histogram: 1 0 0 3 2 0 0 1 0 1

Total # of neighbors = 240418
Ave neighs/atom = 325.76965
Ave special neighs/atom = 10.252033
Neighbor list builds = 26
Dangerous builds = 0
PPPM initialization ...
  using 12-bit tables for long-range coulomb (src/kspace.cpp:342)
  G vector (1/distance) = 0.26130182
  grid = 10 10 10
  stencil order = 5
  estimated absolute RMS force accuracy = 0.034061289
  estimated relative force accuracy = 0.00010257456
  using double precision KISS FFT
  3d grid and FFT values/proc = 1000 200
Generated 153 of 153 mixed pair_coeff terms from sixthpower mixing rule
WARNING: Inconsistent image flags (src/domain.cpp:1051)
Per MPI rank memory allocation (min/avg/max) = 22.4 | 22.77 | 23.04 Mbytes
   Step          Temp          Press         Density       f_PArxn[1]  
     16636   287.48935      1847.4098      0.99464231     51           
     16700   295.37549      388.11737      0.97498675     51           
     16800   295.51664     -2097.6089      0.9818955      51           
     16900   299.52377      347.51454      1.003071       51           
     17000   339.99914      4347.043       1.0646126      52           
     17100   313.7345      -3375.7798      0.98842747     52           
     17200   312.43908      1292.5901      0.9573389      52           
     17300   291.3103       1182.7883      0.97215643     52           
     17400   292.48075      536.50408      0.96363318     52           
     17500   304.7572       1594.8322      0.98542017     52           
     17600   317.15339     -3543.4465      0.95760382     52           
     17636   301.61226     -1309.207       0.97010065     52           
Loop time of 1.58951 on 8 procs for 1000 steps with 736 atoms

Performance: 54.356 ns/day, 0.442 hours/ns, 629.125 timesteps/s, 463.036 katom-step/s
97.3% CPU use with 8 MPI tasks x no OpenMP threads

MPI task timing breakdown:
Section |  min time  |  avg time  |  max time  |%varavg| %total
---------------------------------------------------------------
Pair    | 0.34857    | 0.44702    | 0.57096    |   9.7 | 28.12
Bond    | 0.032631   | 0.040632   | 0.051044   |   2.5 |  2.56
Kspace  | 0.4984     | 0.63345    | 0.73966    |   8.7 | 39.85
Neigh   | 0.068629   | 0.068769   | 0.068837   |   0.0 |  4.33
Comm    | 0.029936   | 0.031809   | 0.033144   |   0.7 |  2.00
Output  | 0.0006795  | 0.00072223 | 0.00084179 |   0.0 |  0.05
Modify  | 0.36341    | 0.3641     | 0.36445    |   0.1 | 22.91
Other   |            | 0.003006   |            |       |  0.19

Nlocal:             92 ave         113 max          75 min
Histogram: 1 1 0 2 0 2 1 0 0 1
Nghost:        2286.62 ave        2449 max        2138 min
Histogram: 1 0 1 1 2 0 2 0 0 1
Neighs:        28826.4 ave       36299 max       22919 min
Histogram: 1 1 0 1 2 2 0 0 0 1

Total # of neighbors = 230611
Ave neighs/atom = 313.33016
Ave special neighs/atom = 10.288043
Neighbor list builds = 40
Dangerous builds = 0
Resetting atom IDs ...
PPPM initialization ...
  using 12-bit tables for long-range coulomb (src/kspace.cpp:342)
  G vector (1/distance) = 0.26072719
  grid = 10 10 10
  stencil order = 5
  estimated absolute RMS force accuracy = 0.034600105
  estimated relative force accuracy = 0.00010419719
  using double precision KISS FFT
  3d grid and FFT values/proc = 1000 200
Generated 153 of 153 mixed pair_coeff terms from sixthpower mixing rule
Finding 1-2 1-3 1-4 neighbors ...
  special bond factors lj:    0        0        0       
  special bond factors coul:  0        0        0       
     3 = max # of 1-2 neighbors
     6 = max # of 1-3 neighbors
    12 = max # of 1-4 neighbors
    14 = max # of special neighbors
  special bonds CPU = 0.001 seconds
==================================Current bonds formed = 52 Minimum bonds desired = 55.8=======================================
==================================NVT PA POLYMERIZATION RUN: 300 C===============================
PPPM initialization ...
  using 12-bit tables for long-range coulomb (src/kspace.cpp:342)
  G vector (1/distance) = 0.26072719
  grid = 10 10 10
  stencil order = 5
  estimated absolute RMS force accuracy = 0.034600105
  estimated relative force accuracy = 0.00010419719
  using double precision KISS FFT
  3d grid and FFT values/proc = 1000 200
Generated 153 of 153 mixed pair_coeff terms from sixthpower mixing rule
WARNING: Inconsistent image flags (src/domain.cpp:1051)
Per MPI rank memory allocation (min/avg/max) = 22.4 | 22.79 | 23.04 Mbytes
   Step          Temp          Press         Density       f_PArxn[1]  
     17636   300           -1330.762       0.97010065     52           
     17700   292.76046     -3646.3269      0.97010065     52           
     17800   294.75709     -2787.1024      0.97010065     52           
     17900   289.61273      2103.4093      0.97010065     52           
     18000   295.50643     -4073.9598      0.97010065     52           
     18100   298.60646      930.20423      0.97010065     52           
     18200   295.7178      -1743.938       0.97010065     52           
     18300   295.64295      1783.0932      0.97010065     52           
     18400   307.7519      -2738.5871      0.97010065     52           
     18500   291.78589      422.30338      0.97010065     52           
     18600   289.14497     -1660.4021      0.97010065     52           
     18636   277.59979     -266.70759      0.97010065     52           
Loop time of 1.32095 on 8 procs for 1000 steps with 736 atoms

Performance: 65.407 ns/day, 0.367 hours/ns, 757.030 timesteps/s, 557.174 katom-step/s
97.0% CPU use with 8 MPI tasks x no OpenMP threads

MPI task timing breakdown:
Section |  min time  |  avg time  |  max time  |%varavg| %total
---------------------------------------------------------------
Pair    | 0.28048    | 0.3321     | 0.38316    |   6.1 | 25.14
Bond    | 0.025683   | 0.028283   | 0.030656   |   1.0 |  2.14
Kspace  | 0.42954    | 0.47891    | 0.53251    |   5.2 | 36.25
Neigh   | 0.041274   | 0.041375   | 0.041502   |   0.0 |  3.13
Comm    | 0.028209   | 0.029432   | 0.031736   |   0.6 |  2.23
Output  | 0.00094363 | 0.0010188  | 0.0011465  |   0.2 |  0.08
Modify  | 0.40348    | 0.40665    | 0.4099     |   0.3 | 30.78
Other   |            | 0.00318    |            |       |  0.24

Nlocal:             92 ave         108 max          77 min
Histogram: 1 0 1 1 1 2 0 1 0 1
Nghost:        2296.75 ave        2465 max        2163 min
Histogram: 1 1 1 1 1 1 1 0 0 1
Neighs:          29281 ave       35526 max       23456 min
Histogram: 1 0 2 0 1 2 0 1 0 1

Total # of neighbors = 234248
Ave neighs/atom = 318.27174
Ave special neighs/atom = 10.288043
Neighbor list builds = 24
Dangerous builds = 0
PPPM initialization ...
  using 12-bit tables for long-range coulomb (src/kspace.cpp:342)
  G vector (1/distance) = 0.26072719
  grid = 10 10 10
  stencil order = 5
  estimated absolute RMS force accuracy = 0.034600105
  estimated relative force accuracy = 0.00010419719
  using double precision KISS FFT
  3d grid and FFT values/proc = 1000 200
Generated 153 of 153 mixed pair_coeff terms from sixthpower mixing rule
WARNING: Inconsistent image flags (src/domain.cpp:1051)
Per MPI rank memory allocation (min/avg/max) = 22.4 | 22.79 | 23.04 Mbytes
   Step          Temp          Press         Density       f_PArxn[1]  
     18636   277.59979     -266.70759      0.97010065     52           
     18700   302.65781     -1931.9528      0.96540942     52           
     18800   297.06775      772.81186      0.9635897      52           
     18900   305.5996       328.36012      0.97917366     52           
     19000   311.38137      270.99712      1.0118539      52           
     19100   287.39681     -878.80935      1.0218287      52           
     19200   299.8942       1262.2999      1.0423657      52           
     19300   302.94352      1037.6087      1.0511165      52           
     19400   326.58537      1348.2935      1.059164       52           
     19500   323.30103     -84.204615      1.0370109      52           
     19600   295.42807      1999.4385      1.0500478      52           
     19636   286.92326     -928.6787       1.0573452      52           
Loop time of 1.64368 on 8 procs for 1000 steps with 736 atoms

Performance: 52.565 ns/day, 0.457 hours/ns, 608.392 timesteps/s, 447.777 katom-step/s
97.0% CPU use with 8 MPI tasks x no OpenMP threads

MPI task timing breakdown:
Section |  min time  |  avg time  |  max time  |%varavg| %total
---------------------------------------------------------------
Pair    | 0.41031    | 0.45822    | 0.54308    |   6.8 | 27.88
Bond    | 0.036472   | 0.04015    | 0.044645   |   1.4 |  2.44
Kspace  | 0.53628    | 0.62501    | 0.67459    |   6.1 | 38.03
Neigh   | 0.043065   | 0.043202   | 0.043339   |   0.0 |  2.63
Comm    | 0.02913    | 0.030071   | 0.031548   |   0.5 |  1.83
Output  | 0.0010385  | 0.0010957  | 0.0012257  |   0.2 |  0.07
Modify  | 0.43982    | 0.44163    | 0.44292    |   0.2 | 26.87
Other   |            | 0.0043     |            |       |  0.26

Nlocal:             92 ave         104 max          81 min
Histogram: 1 1 0 2 1 0 1 0 0 2
Nghost:           2410 ave        2519 max        2307 min
Histogram: 1 1 1 0 1 1 1 0 1 1
Neighs:          31953 ave       37172 max       28117 min
Histogram: 2 0 1 2 0 1 0 0 1 1

Total # of neighbors = 255624
Ave neighs/atom = 347.31522
Ave special neighs/atom = 10.288043
Neighbor list builds = 25
Dangerous builds = 0
Resetting atom IDs ...
PPPM initialization ...
  using 12-bit tables for long-range coulomb (src/kspace.cpp:342)
[...]
   1469800   314.96875     -1438.3238      1.192655     
   1469900   310.25252     -5505.7087      1.192655     
   1470000   300.15126     -2648.6599      1.192655     
   1470100   299.61889     -2128.8911      1.192655     
   1470200   303.14655     -2123.0619      1.192655     
   1470300   299.81966     -3709.6744      1.192655     
   1470400   288.82701     -370.87145      1.192655     
   1470500   306.13922      101.28898      1.192655     
   1470600   309.6072      -3215.4772      1.192655     
   1470700   306.18285      2222.2507      1.192655     
   1470800   303.60577      293.09056      1.192655     
   1470900   291.27479     -467.42184      1.192655     
   1471000   290.70292     -3388.1248      1.192655     
   1471100   302.83024     -995.91808      1.192655     
   1471200   303.05398      38.346265      1.192655     
   1471300   306.09593     -1664.5355      1.192655     
   1471400   295.92618     -3698.3555      1.192655     
   1471500   286.28246     -113.9083       1.192655     
   1471600   297.60971     -1998.4526      1.192655     
   1471700   309.98747     -1803.9144      1.192655     
   1471800   312.47552     -2276.8888      1.192655     
   1471900   298.56812     -3305.7599      1.192655     
   1472000   291.26386      1240.4906      1.192655     
   1472100   285.76053     -3150.3591      1.192655     
   1472200   306.54859      785.6777       1.192655     
   1472300   306.25571     -2758.7917      1.192655     
   1472400   305.13151     -3091.8634      1.192655     
   1472500   292.03034     -3150.51        1.192655     
   1472600   294.36386     -4811.6248      1.192655     
   1472700   294.10078     -1593.7229      1.192655     
   1472800   289.42159     -4342.2537      1.192655     
   1472900   313.38379     -3354.6608      1.192655     
   1473000   298.61085     -307.48792      1.192655     
   1473100   308.63987     -334.80516      1.192655     
   1473200   298.02316     -1380.0817      1.192655     
   1473300   291.74259     -1305.4938      1.192655     
   1473400   296.36651     -2260.4706      1.192655     
   1473500   303.73227     -4911.6926      1.192655     
   1473600   295.044       -2825.1416      1.192655     
   1473700   304.87548     -63.494179      1.192655     
   1473800   317.84514     -2624.6361      1.192655     
   1473900   306.99083     -5666.2297      1.192655     
   1474000   300.15437      1243.5046      1.192655     
   1474100   298.13634      674.37273      1.192655     
   1474200   306.47315      292.34054      1.192655     
   1474300   298.56367      19.961652      1.192655     
   1474400   307.32645     -2692.0606      1.192655     
   1474500   311.4413      -273.86861      1.192655     
   1474600   298.67609     -5388.2633      1.192655     
   1474700   300.60318     -3270.2092      1.192655     
   1474800   300.31392     -5675.9884      1.192655     
   1474900   298.1015      -3449.1966      1.192655     
   1475000   311.44535      1080.0166      1.192655     
   1475100   319.1893      -1873.8779      1.192655     
   1475200   300.7712       1272.9538      1.192655     
   1475300   302.43632     -510.85024      1.192655     
   1475400   296.27928     -4293.3867      1.192655     
   1475500   296.03551      315.81832      1.192655     
   1475600   300.79197      1601.1459      1.192655     
   1475700   300.06289     -2918.2364      1.192655     
   1475800   305.63203     -590.43828      1.192655     
   1475900   307.00334     -2202.6833      1.192655     
   1476000   301.15462     -497.56816      1.192655     
   1476100   309.12127     -1131.6548      1.192655     
   1476200   308.55224      980.0916       1.192655     
   1476300   301.96012      3250.9718      1.192655     
   1476400   306.31132     -102.82998      1.192655     
   1476500   283.31433     -81.328813      1.192655     
   1476600   290.50192      148.96103      1.192655     
   1476700   301.61563     -68.930408      1.192655     
   1476800   302.24295      1143.3585      1.192655     
   1476900   299.82208     -3566.0777      1.192655     
   1477000   302.11463      1361.6361      1.192655     
   1477100   294.47585      627.21542      1.192655     
   1477200   297.95104     -1252.4616      1.192655     
   1477300   292.43701      640.66088      1.192655     
   1477400   298.36594      725.01971      1.192655     
   1477500   299.30127      176.34584      1.192655     
   1477600   311.01036     -2360.2706      1.192655     
   1477700   283.53273      445.93476      1.192655     
   1477800   289.585       -1785.1678      1.192655     
   1477900   308.5451       375.21237      1.192655     
   1478000   302.62836      109.60591      1.192655     
   1478100   293.03791      2009.7793      1.192655     
   1478200   296.78766      1823.3474      1.192655     
   1478300   290.00178      738.00905      1.192655     
   1478400   307.59922     -2311.2709      1.192655     
   1478500   313.33131     -1009.2355      1.192655     
   1478600   302.35598      1908.2716      1.192655     
   1478700   298.64413     -3026.2623      1.192655     
   1478800   301.90808      1814.1261      1.192655     
   1478900   287.41811      892.04841      1.192655     
   1479000   283.64661     -3681.6606      1.192655     
   1479100   289.15667     -3764.2511      1.192655     
   1479200   304.74151      642.21491      1.192655     
   1479300   305.6794      -259.95274      1.192655     
   1479400   303.30119     -2270.288       1.192655     
   1479500   291.04164      514.2063       1.192655     
   1479600   297.40874      1048.5215      1.192655     
   1479700   301.84911     -219.58908      1.192655     
   1479800   299.78858     -222.11034      1.192655     
   1479900   301.48681     -311.197        1.192655     
   1480000   295.71461      69.766131      1.192655     
   1480100   303.48122      1839.7299      1.192655     
   1480200   303.41951      2151.9816      1.192655     
   1480300   295.21023     -494.51047      1.192655     
   1480400   295.60885      2521.6938      1.192655     
   1480500   294.63812     -620.61038      1.192655     
   1480600   299.53475     -291.08237      1.192655     
   1480700   311.02868      693.40911      1.192655     
   1480800   285.30779      878.01226      1.192655     
   1480900   284.03007      2926.0164      1.192655     
   1481000   297.62008      1817.8426      1.192655     
   1481100   309.1507       2243.1293      1.192655     
   1481200   302.20407     -1040.4912      1.192655     
   1481300   295.76598      507.49313      1.192655     
   1481400   292.98351     -2008.6167      1.192655     
   1481500   296.94635      1301.8294      1.192655     
   1481600   290.92857     -531.47469      1.192655     
   1481700   299.20961      56.328294      1.192655     
   1481800   316.32783     -944.83988      1.192655     
   1481900   294.95617     -3184.3981      1.192655     
   1482000   288.5889      -957.65452      1.192655     
   1482100   297.20725     -3021.9373      1.192655     
   1482200   291.88133     -1405.137       1.192655     
   1482300   310.08104     -1931.9017      1.192655     
   1482400   298.71278     -3986.3849      1.192655     
   1482500   313.22993     -2920.4422      1.192655     
   1482600   305.70196      123.49634      1.192655     
   1482700   292.87918     -1936.4078      1.192655     
   1482800   293.84411     -517.47507      1.192655     
   1482900   297.17472     -2016.7146      1.192655     
   1483000   311.64028      1210.4394      1.192655     
   1483100   306.06549     -2628.7156      1.192655     
   1483200   299.33538     -3770.1294      1.192655     
   1483300   294.01881     -3376.8163      1.192655     
   1483400   306.43214     -392.49378      1.192655     
   1483500   297.61179      1558.1049      1.192655     
   1483600   283.32116     -3034.9132      1.192655     
   1483700   290.31579     -489.14035      1.192655     
   1483800   316.11598      2087.9817      1.192655     
   1483900   300.39733     -740.30908      1.192655     
   1484000   300.72597     -168.69707      1.192655     
   1484100   296.13262      1075.8229      1.192655     
   1484200   292.40723     -2974.7917      1.192655     
   1484300   296.68157      2160.3178      1.192655     
   1484400   298.15551      2926.6674      1.192655     
   1484500   297.39842      387.40987      1.192655     
   1484600   312.72727      139.30067      1.192655     
   1484700   303.81677     -2949.1425      1.192655     
   1484800   290.62393      885.40907      1.192655     
   1484900   297.37311     -4654.8059      1.192655     
   1485000   303.85499      1338.5045      1.192655     
   1485100   301.80748     -3609.3163      1.192655     
   1485200   300.9064      -4538.3177      1.192655     
   1485300   317.43661     -528.64103      1.192655     
   1485400   303.13155      4197.7699      1.192655     
   1485500   292.26025     -3685.742       1.192655     
   1485600   291.53897     -789.84485      1.192655     
   1485700   300.45927     -1598.5233      1.192655     
   1485800   303.11132     -1750.6047      1.192655     
   1485900   302.51734     -1948.2305      1.192655     
   1486000   299.09975     -3168.7289      1.192655     
   1486100   295.5033      -1375.2593      1.192655     
   1486200   304.95152      1204.8741      1.192655     
   1486300   294.1156       566.93908      1.192655     
   1486400   306.19262      2961.9125      1.192655     
   1486500   298.51882      35.354689      1.192655     
   1486600   290.28235      94.979122      1.192655     
   1486700   288.00215     -1679.6697      1.192655     
   1486800   302.88978      1358.47        1.192655     
   1486900   302.81824     -468.70485      1.192655     
   1487000   307.61316      1807.8865      1.192655     
   1487100   305.46336     -1648.3502      1.192655     
   1487200   302.66199      1333.9035      1.192655     
   1487300   301.64851      1065.3773      1.192655     
   1487400   300.83789     -205.60659      1.192655     
   1487500   314.05715      437.15402      1.192655     
   1487600   317.09876      1973.579       1.192655     
   1487700   307.05239      3414.6229      1.192655     
   1487800   309.33617     -1282.0279      1.192655     
   1487900   306.26287     -1189.2679      1.192655     
   1488000   295.53579     -887.92107      1.192655     
   1488100   286.50969      51.752377      1.192655     
   1488200   281.95724      549.38844      1.192655     
   1488300   285.69082      2129.3898      1.192655     
   1488400   296.42375     -3076.1854      1.192655     
   1488500   303.74967      264.73091      1.192655     
   1488600   299.92089     -1536.346       1.192655     
   1488700   326.06194      425.8435       1.192655     
   1488800   306.44939     -3404.4703      1.192655     
   1488900   298.18049      407.34903      1.192655     
   1489000   297.95377     -298.41799      1.192655     
   1489100   307.17964     -2706.2882      1.192655     
   1489200   314.13889     -1754.4047      1.192655     
   1489300   311.56901     -2659.427       1.192655     
   1489400   304.47786      3.4700728      1.192655     
   1489500   300.26717     -153.23691      1.192655     
   1489600   296.97902      1118.4272      1.192655     
   1489700   294.42355      677.22658      1.192655     
   1489800   280.56929     -2843.0901      1.192655     
   1489900   302.0868      -1547.0673      1.192655     
   1490000   304.69089     -401.15174      1.192655     
   1490100   296.05703     -2322.5822      1.192655     
   1490200   309.35713     -386.09722      1.192655     
   1490300   301.10723     -1258.6874      1.192655     
   1490400   292.35769     -4383.0936      1.192655     
   1490500   303.29665     -931.51108      1.192655     
   1490600   295.07772      2373.7198      1.192655     
   1490700   304.35034     -52.144364      1.192655     
   1490800   301.34775      581.76845      1.192655     
   1490900   298.81655     -1159.9756      1.192655     
   1491000   300.75757     -2008.8374      1.192655     
   1491100   301.05329     -1706.2672      1.192655     
   1491200   289.55926      267.0069       1.192655     
   1491300   294.6509       732.89268      1.192655     
   1491400   294.56271     -1775.3156      1.192655     
   1491500   293.14997     -3117.9411      1.192655     
   1491600   306.05381     -1791.7717      1.192655     
   1491700   301.97151     -2925.4823      1.192655     
   1491800   288.16981     -3353.4925      1.192655     
   1491900   276.62654     -1779.2005      1.192655     
   1492000   288.40568     -2077.6945      1.192655     
   1492100   303.64103     -5805.7827      1.192655     
   1492200   302.04654     -691.37298      1.192655     
   1492300   303.48801      665.31531      1.192655     
   1492400   299.07566     -2301.6722      1.192655     
   1492500   306.07164     -584.99001      1.192655     
   1492600   297.93571      870.58805      1.192655     
   1492700   310.71448     -4408.7823      1.192655     
   1492800   308.7563       2063.2298      1.192655     
   1492900   301.77082      4018.226       1.192655     
   1493000   299.35094     -1074.1418      1.192655     
   1493100   287.1517       1090.113       1.192655     
   1493200   301.52893      656.86298      1.192655     
   1493300   310.31128      2727.2232      1.192655     
   1493400   292.7114       2214.7843      1.192655     
   1493500   291.70768      4620.4136      1.192655     
   1493600   288.80595      702.12342      1.192655     
   1493700   307.08377      2406.2106      1.192655     
   1493800   308.34928      1953.3685      1.192655     
   1493900   301.25257      348.84184      1.192655     
   1494000   288.71483     -14.833617      1.192655     
   1494100   307.08316     -181.96861      1.192655     
   1494200   289.16486     -2071.1479      1.192655     
   1494300   285.46562     -2184.1982      1.192655     
   1494400   296.54097     -600.3809       1.192655     
   1494500   303.70502     -3130.217       1.192655     
   1494600   303.36243      2512.9925      1.192655     
   1494700   308.66505     -1364.9592      1.192655     
   1494800   304.90909     -2146.8073      1.192655     
   1494900   283.98873     -1334.6364      1.192655     
   1495000   284.82285      29.179849      1.192655     
   1495100   296.61487     -2701.1671      1.192655     
   1495200   297.12159      62.448134      1.192655     
   1495300   299.59632     -1850.6507      1.192655     
   1495400   290.1994      -1699.249       1.192655     
   1495500   284.8729      -549.51246      1.192655     
   1495600   290.03752     -865.64577      1.192655     
   1495700   303.57653     -1234.7013      1.192655     
   1495800   305.91537     -805.10351      1.192655     
   1495900   297.13425      26.612061      1.192655     
   1496000   293.38014     -1042.5918      1.192655     
   1496100   285.67395     -5946.2202      1.192655     
   1496200   293.88193      613.60203      1.192655     
   1496300   294.70979     -1963.3928      1.192655     
   1496400   305.68428     -2212.1934      1.192655     
   1496500   290.63083      1244.3667      1.192655     
   1496600   290.96103      1312.9901      1.192655     
   1496700   307.00443     -1179.8629      1.192655     
   1496800   314.75592     -1305.8326      1.192655     
   1496900   298.41206      1651.953       1.192655     
   1497000   295.33576     -1801.0466      1.192655     
   1497100   304.38991      805.94536      1.192655     
   1497200   297.88518      1204.4828      1.192655     
   1497300   304.92328     -1540.6574      1.192655     
   1497400   303.67847     -3314.802       1.192655     
   1497500   302.48246     -2422.3652      1.192655     
   1497600   291.15318     -1714.6742      1.192655     
   1497700   294.84283      1896.1821      1.192655     
   1497800   294.17994     -2817.6428      1.192655     
   1497900   295.52437      472.90293      1.192655     
   1498000   294.47191      94.087784      1.192655     
   1498100   311.47418      1478.6366      1.192655     
   1498200   306.43485      50.581058      1.192655     
   1498300   297.28888      2991.0388      1.192655     
   1498400   286.41866      104.18383      1.192655     
   1498500   304.98489     -3015.4343      1.192655     
   1498600   301.61771     -316.90231      1.192655     
   1498700   312.08718     -186.85874      1.192655     
   1498800   298.86586     -1576.5553      1.192655     
   1498900   295.40361      1346.6247      1.192655     
   1499000   295.03824     -1186.6481      1.192655     
   1499100   291.2686       157.87882      1.192655     
   1499200   301.64061     -1079.1534      1.192655     
   1499300   312.11691     -182.53834      1.192655     
   1499400   308.02665     -2301.2361      1.192655     
   1499500   289.47238     -1716.4436      1.192655     
   1499600   297.62213      1516.2883      1.192655     
   1499700   307.18705     -1499.3129      1.192655     
   1499800   305.32578      42.184332      1.192655     
   1499900   292.21063     -1994.1517      1.192655     
   1500000   295.05728     -1833.0869      1.192655     
Loop time of 945.388 on 8 procs for 747667 steps with 820 atoms

Performance: 68.330 ns/day, 0.351 hours/ns, 790.857 timesteps/s, 648.503 katom-step/s
98.4% CPU use with 8 MPI tasks x no OpenMP threads

MPI task timing breakdown:
Section |  min time  |  avg time  |  max time  |%varavg| %total
---------------------------------------------------------------
Pair    | 383        | 386.08     | 389.86     |  12.6 | 40.84
Bond    | 21.358     | 21.678     | 21.929     |   4.2 |  2.29
Kspace  | 401.6      | 405        | 407.99     |  11.7 | 42.84
Neigh   | 77.547     | 77.555     | 77.568     |   0.1 |  8.20
Comm    | 28.049     | 28.106     | 28.147     |   0.6 |  2.97
Output  | 0.50904    | 0.55629    | 0.64071    |   5.1 |  0.06
Modify  | 22.211     | 22.464     | 22.744     |   4.2 |  2.38
Other   |            | 3.944      |            |       |  0.42

Nlocal:          102.5 ave         108 max          94 min
Histogram: 1 0 1 0 1 1 1 0 0 3
Nghost:        2774.12 ave        2812 max        2740 min
Histogram: 1 0 2 1 1 0 1 0 1 1
Neighs:        41912.2 ave       43697 max       38859 min
Histogram: 1 0 0 1 1 1 0 1 0 3

Total # of neighbors = 335298
Ave neighs/atom = 408.9
Ave special neighs/atom = 9.4097561
Neighbor list builds = 29583
Dangerous builds = 0
88 atoms in group EXCESSOHCL
Deleted 88 atoms, new total = 732
Deleted 47 bonds, new total = 788
Deleted 15 angles, new total = 1264
Deleted 18 dihedrals, new total = 2040
Deleted -5 impropers, new total = 818
Resetting atom IDs ...
PPPM initialization ...
  using 12-bit tables for long-range coulomb (src/kspace.cpp:342)
  G vector (1/distance) = 0.2645401
  grid = 10 10 10
  stencil order = 5
  estimated absolute RMS force accuracy = 0.032204651
  estimated relative force accuracy = 9.6983351e-05
  using double precision KISS FFT
  3d grid and FFT values/proc = 1000 200
Generated 153 of 153 mixed pair_coeff terms from sixthpower mixing rule
Finding 1-2 1-3 1-4 neighbors ...
  special bond factors lj:    0        0        0       
  special bond factors coul:  0        0        0       
     3 = max # of 1-2 neighbors
     6 = max # of 1-3 neighbors
    12 = max # of 1-4 neighbors
    14 = max # of special neighbors
  special bonds CPU = 0.000 seconds
System init for write_data ...
PPPM initialization ...
  using 12-bit tables for long-range coulomb (src/kspace.cpp:342)
  G vector (1/distance) = 0.2645401
  grid = 10 10 10
  stencil order = 5
  estimated absolute RMS force accuracy = 0.032204651
  estimated relative force accuracy = 9.6983351e-05
  using double precision KISS FFT
  3d grid and FFT values/proc = 1000 200
Generated 153 of 153 mixed pair_coeff terms from sixthpower mixing rule
Total wall time: 0:34:08
