LAMMPS data file via write_data, version 29 Aug 2024, timestep = 750000, units = real

728 atoms
18 atom types
784 bonds
18 bond types
1260 angles
25 angle types
2040 dihedrals
31 dihedral types
822 impropers
9 improper types

10.41879912902543 31.355500373489328 xlo xhi
10.41879912902543 31.355500373489328 ylo yhi
10.41879912902543 31.355500373489328 zlo zhi

Masses

1 12.01
2 12.01
3 12.01
4 16
5 1.008
6 14.01
7 14.01
8 1.008
9 12.01
10 1.008
11 16
12 16
13 1.008
14 1.008
15 16
16 1.008
17 12.01
18 35.45

Pair Coeffs # lj/charmm/coul/long

1 0.086 3.39967 0.086 3.39967
2 0.086 3.39967 0.086 3.39967
3 0.086 3.39967 0.086 3.39967
4 0.21 2.9599 0.21 2.9599
5 0.015 2.5996 0.015 2.5996
6 0.17 3.25 0.17 3.25
7 0.17 3.25 0.17 3.25
8 0.0157 1.0691 0.0157 1.0691
9 0.1094 3.39967 0.1094 3.39967
10 0.01569 2.64954 0.01569 2.64954
11 0.21 2.9599 0.21 2.9599
12 0.21 2.9599 0.21 2.9599
13 0.015 2.5996 0.015 2.5996
14 0.015 2.5996 0.015 2.5996
15 0.155865 3.178 0.155865 3.178
16 0 0 0 0
17 0.06844 3.407 0.06844 3.407
18 0.265 3.47094 0.265 3.47094

Bond Coeffs # harmonic

1 461.1 1.3984
2 345.8 1.086
3 345.9 1.4906
4 345.9 1.4906
5 637.7 1.2183
6 637.7 1.2183
7 417.9 1.3859
8 417.9 1.3859
9 404.6 1.0121
10 404.6 1.0121
11 300.9 1.5375
12 330.6 1.0969
13 427.6 1.379
14 400.1 1.3513
15 371.4 0.973
16 371.4 0.973
17 450 1.0118
18 267.4 1.8029

Angle Coeffs # harmonic

1 66.6 120.02
2 64.3 120.33
3 64.3 120.33
4 48.2 119.88
5 68.7 122.6
6 68.7 122.6
7 68.3 120.95
8 68.3 120.95
9 48.4 116.07
10 48.4 116.07
11 63.8 123.71
12 48.3 117.55
13 67.7 115.25
14 74.2 123.05
15 62.9 111.51
16 46.3 109.8
17 39.4 107.58
18 69.2 113.45
19 49.9 106.55
20 75.9 122.1
21 40.1 115.12
22 55 108.15
23 61.111 114.705
24 58.8 120.69
25 40.1 115.12

Dihedral Coeffs # charmm

1 3.625 2 180 0.5
2 3.625 2 180 0
3 3.625 2 180 0
4 3.625 2 180 0
5 0.45 2 180 0
6 0.45 2 180 0
7 3.625 2 180 0
8 3.625 2 180 0
9 3.625 2 180 0
10 3.625 2 180 0
11 3.625 2 180 0
12 3.625 2 180 0
13 3.625 2 180 0
14 1.05 2 180 0
15 1.05 2 180 0
16 0.45 2 180 0
17 2.3 2 180 0
18 2.3 2 180 0
19 1.05 2 180 0
20 2.3 2 180 0
21 2.3 2 180 0
22 1 2 180 0
23 2.3 2 180 0
24 2.3 2 180 0
25 0.25 2 180 0
26 0.2 1 180 0
27 0.18 3 180 0
28 0.16 3 0 0
29 0.15 3 0 0
30 10.5 2 180 0
31 1 2 180 0

Improper Coeffs # harmonic

1 1.1 180
2 1.1 180
3 1.1 180
4 1.1 180
5 1.1 180
6 1.1 180
7 10.5 180
8 1.1 180
9 1.1 180

Atoms # full

1 2 7 -0.398375 17.34986971597523 15.633742209522064 14.944330519206591 0 0 0
2 5 1 0.6797 12.878109624917322 19.44834843747567 16.253042002898827 0 0 0
3 1 3 0.014 16.59890064951837 10.979091988703026 19.84545525031616 1 0 0
4 5 5 0.1816 11.997319232226145 20.552133825700672 13.92449850557942 0 0 0
5 3 3 -0.1956 10.511303183775162 13.834355624900232 13.278787039533308 1 1 0
6 2 3 0.1716 16.909935064596016 16.43304511916898 13.92295840870379 0 0 0
7 2 5 0.131 14.844002172738834 16.207649658652606 14.599799189510827 0 0 0
8 2 1 0.743425 15.03535551259391 11.546692716181331 12.345100766850374 0 0 0
9 2 4 -0.5760999999999999 19.1145142667739 14.382716999932397 15.468261172312252 0 0 0
10 1 5 0.1816 20.429122451195063 12.684977098599845 18.248275134018247 0 0 0
11 1 3 -0.23 16.90238471283635 11.533290181240984 16.318572721159743 1 0 -1
12 3 3 0.014 10.792664530508581 12.776485775125538 14.199782076881844 1 1 0
13 5 18 -0.1036 12.970423349633505 18.59777420315975 17.861874828316324 0 0 0
14 2 4 -0.5760999999999999 14.351856884952722 11.539370736885353 13.369719479335739 0 0 0
15 1 7 -0.4621 11.458614373538902 18.823980309791 11.149804702653054 0 0 0
16 2 3 -0.1956 18.875743377305387 11.774963494139753 12.175148231645101 0 0 0
17 2 5 0.1816 17.340054503683053 10.55481521286499 11.225481276926015 0 0 0
18 1 5 0.1816 17.560268418033466 11.518090930792745 19.953430072497074 1 0 0
19 2 5 0.131 18.884549305530832 17.094270660910766 13.192950892761655 0 0 0
20 2 3 -0.23 17.31770092474392 18.158933900330965 12.13996011438938 0 0 0
21 1 4 -0.5760999999999999 15.756873889685519 14.1631771473499 19.859470234115847 1 0 0
22 2 3 0.1716 15.0487307157012 17.628864048255522 12.942769309155187 0 0 0
23 1 5 0.10745 16.18902707562803 16.57966050648453 20.07191990869643 0 0 0
24 1 3 -0.1565 20.14804339450383 17.56189976893579 17.365821691532705 0 0 0
25 1 8 0.23105 17.294345714439196 19.07848634789174 17.28875706311961 0 0 0
26 2 8 0.23105 17.636129916075284 16.243651821383818 15.652443485721479 0 0 0
27 1 3 -0.23 19.2586357487714 18.523971598170895 16.889364114685698 0 0 0
28 2 5 0.1816 15.763073977332299 13.376300126264365 13.886022396889675 0 0 0
29 2 7 -0.398375 14.457085703909739 11.055020303444739 11.158241775277373 0 0 0
30 1 1 0.743425 18.38847836328425 19.67725456751848 18.922439756136143 0 0 0
31 1 3 0.014 14.255567687092661 11.276593502802257 19.254684641238757 1 0 0
32 1 7 -0.398375 18.22310665114112 19.020285751612754 17.741388538922227 0 0 0
33 1 4 -0.5760999999999999 19.481528754571578 19.540487732942676 19.415168644995212 0 0 0
34 2 3 0.014 17.56629429387732 11.37990018800881 11.870575606953905 0 0 0
35 2 3 0.014 19.04517238756383 12.849120132974724 13.08075287919842 0 0 0
36 1 3 -0.23 12.486331130315827 18.140552640205136 10.501589491268813 0 0 0
37 2 5 0.131 15.503242038471946 19.015402689889196 11.502213972874314 0 0 0
38 2 3 -0.23 15.960570036968274 18.339868281057832 12.142817187924697 0 0 0
39 5 5 0.1816 11.06483177261425 20.249449813391564 18.112120574424107 0 0 0
40 1 3 -0.1956 15.516854848196836 11.818748145477 19.465164282209646 1 0 0
41 1 5 0.131 12.001557449115532 10.559137211795068 20.64892981544603 1 0 -1
42 5 4 -0.5760999999999999 13.800052347823696 19.502792311654236 15.458700362782261 0 0 0
43 1 5 0.131 18.48871141688579 15.650120295326335 19.89112838498865 0 0 0
44 1 3 0.1716 15.743994363919041 12.271735802824185 16.74758080403722 1 0 -1
45 1 7 -0.398375 15.860937118833837 13.376530860403179 17.611220662072782 1 0 -1
46 5 3 -0.1956 11.604724663373462 20.209060608195614 16.02677697234266 0 0 0
47 1 3 -0.1956 17.343011908400495 20.56602417792347 19.570553430478025 0 0 0
48 1 8 0.23105 16.310424900069233 14.153653099937628 17.229012037585154 1 0 -1
49 1 5 0.131 18.75303169385892 19.860797139590538 15.312062073487857 0 0 0
50 3 5 0.1816 11.66232690137741 12.074050213123456 14.136995634583634 1 1 0
51 2 3 -0.1956 17.930518941610703 13.42922710541782 13.722256738628245 0 0 0
52 1 1 0.743425 15.694631032976778 13.257094667342226 19.050789882087376 1 0 0
53 2 3 -0.1565 17.791698154804326 17.200451256565533 13.09796006038937 0 0 0
54 1 3 -0.1565 14.483911833140548 11.673050407218764 16.533895690379207 1 0 -1
55 1 5 0.1816 13.368765095030694 11.880599711518668 18.97052995881176 1 0 0
56 1 5 0.131 17.92121025095957 11.876938395926128 16.512120427619475 1 0 -1
57 2 5 0.1816 19.997177724379462 13.338219389273545 13.268504015159051 0 0 0
58 1 5 0.131 20.03522400517536 17.10930734567839 18.43070264891503 0 0 0
59 1 5 0.10745 11.961515804375367 16.300043880157574 11.371579723231712 0 0 0
60 2 1 0.743425 20.18578994591805 11.200612844826393 11.592067339174955 0 0 0
61 2 3 -0.1956 16.483814851228093 11.999494669955293 12.503685905029762 0 0 0
62 2 5 0.10745 13.983849223466397 17.833304512887995 12.966316742279508 0 0 0
63 1 5 0.131 13.629274865521253 12.302174609378008 16.809476319880197 1 0 -1
64 2 1 0.743425 18.187306976829937 14.533240822686144 14.747988389932445 0 0 0
65 3 1 0.743425 11.09742800002906 13.59349949993902 11.909298747180511 1 1 0
66 3 4 -0.5760999999999999 12.226702002373102 13.409988505130446 11.822888223282078 1 1 0
67 1 3 -0.23 18.342211716980284 16.360731444645367 20.66816516616332 0 0 0
68 5 3 0.014 11.25047987932874 20.647663204651685 14.751373102153408 0 0 0
69 2 3 0.014 16.684810215943415 12.915406931647595 13.442379645821736 0 0 0
70 2 3 -0.23 15.500337323199725 16.741823907916682 13.874832400530934 0 0 0
71 1 3 -0.23 19.435614243327137 19.059577666154937 15.601158799341658 0 0 0
72 2 4 -0.5760999999999999 20.09538538361827 19.743497957071618 10.95839575946174 0 0 0
73 1 8 0.23105 11.377263756758927 19.76472951936802 10.902627935918586 0 0 0
74 2 8 0.23105 17.77091308935673 19.737706848063375 10.863215092009614 0 0 0
75 1 8 0.23105 11.066577583555507 18.458586568724293 12.054108920235262 0 0 0
76 2 7 -0.398375 18.076615141514306 18.85184763178423 11.202405250638487 0 0 0
77 2 3 -0.1956 20.16169032609067 17.397587164238907 10.94509186937208 0 0 0
78 2 1 0.743425 19.454121760118678 18.70689383342091 11.045140394438345 0 0 0
79 1 3 0.1716 20.423667124710402 18.50480883328449 14.73822009058024 0 0 0
80 1 3 -0.1565 12.612081630142612 16.718693279702528 10.684470782936671 0 0 0
81 1 5 0.10745 20.667209236518737 18.89220725187066 13.786888793193057 0 0 0
82 5 3 0.014 10.793055271725175 20.585266637234707 17.113260790824192 0 0 0
83 1 3 0.1716 17.012651637639053 16.789357545932315 20.807294037760233 0 0 0
84 2 8 0.23105 13.49188790660571 10.7171803697278 11.259334271292689 0 0 0
85 2 8 0.23105 16.89413233083474 20.619331143242842 13.848860058566421 0 0 0
86 1 7 -0.398375 11.858481088391422 15.281011095297334 25.32670480974046 1 0 -1
87 1 8 0.23105 17.464707793624775 19.683119585885414 24.073426229899095 0 0 0
88 1 1 0.743425 16.49548050208201 18.10699769643459 24.996565336445425 0 0 -1
89 1 3 -0.1956 16.750125085329582 14.282428347003899 25.318452496077523 0 0 -1
90 1 8 0.23105 14.937233200557527 18.09955172447767 27.86006472929501 0 0 -1
91 1 4 -0.5760999999999999 18.76256011730069 13.128196142757039 25.897443697845905 0 0 -1
92 1 3 -0.23 17.724819530046762 17.912010292498838 22.897746340145762 0 0 0
93 1 7 -0.398375 15.015362144802078 18.558101856522377 28.781716778391107 0 0 -1
94 1 3 -0.1565 11.364402122416356 16.551358331187515 27.1751950371636 1 0 -1
95 1 3 0.1716 11.238025357793434 18.940627252117494 25.663655393843523 1 0 -1
96 1 4 -0.5760999999999999 16.058701562955356 18.753883735440507 25.84620989238033 0 0 -1
97 1 5 0.1816 13.978337469311022 17.024906634282832 25.22322418669455 0 0 -1
98 2 7 -0.398375 19.988945160011053 14.187227347838709 28.757852934988772 0 0 -1
99 3 8 0.23105 10.981437374218103 13.26507797770899 30.904541927222663 0 0 -1
100 1 5 0.1816 15.199738388512808 12.937062206125507 25.76183302316676 0 0 -1
101 1 8 0.23105 16.69167164505477 12.406520506143666 23.632610063463304 0 0 0
102 1 5 0.10745 13.659810869710427 14.792200708694875 31.16151025275486 0 0 -1
103 1 3 0.1716 19.40705358215548 16.78077089836016 21.480999232622086 0 0 0
104 1 3 -0.1565 19.03102375466376 17.448783890237976 22.68748637345566 0 0 0
105 1 3 0.014 17.130745508911154 15.659422862076655 25.149929799576547 0 0 -1
106 2 1 0.743425 19.50322790954132 14.137641059393935 30.12035669996357 0 0 -1
107 2 5 0.131 19.61588945786416 16.500220665370694 27.261730449165505 0 0 -1
108 1 3 -0.1956 14.405031020842216 14.906863648894491 25.484775784512983 0 0 -1
109 1 5 0.131 11.376802957575778 15.579146013502609 27.74897439734534 1 0 -1
110 1 5 0.131 11.737893877160312 17.600090058952482 23.9759040443517 1 0 -1
111 1 5 0.1816 18.264603270227013 20.24973691891338 21.514287756416042 0 0 0
112 1 7 -0.398375 17.358314335014136 18.64587922227965 24.063466864249555 0 0 0
113 1 3 -0.23 11.426780494160802 11.393458869014955 22.511157973081325 1 0 -1
114 1 1 0.743425 12.966558224792442 14.465847751439204 25.630148625359446 0 0 -1
115 1 4 -0.5760999999999999 12.679064110138889 13.275314386865544 25.887882847329998 0 0 -1
116 1 3 -0.1565 16.718266169207705 17.45789276282128 22.045338219567725 0 0 0
117 1 8 0.23105 10.94238208990704 14.861832665444917 25.066365297070988 1 0 -1
118 1 8 0.23105 13.097154696911119 12.56879799552694 22.17412225560383 1 0 -1
119 2 3 -0.23 16.016413446277177 12.373021114017645 28.827434230432026 0 0 -1
120 1 3 -0.23 11.60630316832212 17.755588242856966 25.04808830338027 1 0 -1
121 1 3 -0.1565 13.359020752006172 18.658553464854123 30.457785053825212 0 0 -1
122 1 3 -0.23 14.39378796489205 16.458644268986486 29.994712709822114 0 0 -1
123 1 7 -0.398375 12.764944757868687 11.743038846148378 22.721227566884487 1 0 -1
124 1 7 -0.398375 17.566167610708142 12.39276660153494 24.055732031941435 0 0 0
125 1 3 -0.1565 19.900574975659087 12.085736837047921 23.308148789725607 0 0 0
126 1 8 0.23105 10.887544064708496 20.070214597850573 24.108235350637248 1 0 -1
127 1 3 -0.23 18.511532951091006 11.705834664675415 23.27631143978621 0 0 0
128 1 1 0.743425 15.398945426642443 19.90097209438626 28.89056937340212 0 0 -1
129 1 3 -0.1956 16.13478398070972 16.648597018614446 25.08585292380921 0 0 -1
130 1 1 0.743425 13.630991791288515 11.100764608985294 23.562220638907917 1 0 -1
131 2 8 0.23105 19.852063398354122 13.4234559941848 28.11388975568629 0 0 -1
132 1 5 0.131 19.808060580550833 17.753500637123473 23.40240624522864 0 0 0
133 1 3 0.014 13.672177788796816 20.620564637882456 27.054141376705978 0 0 -1
134 1 3 0.1716 14.302719057964127 17.87930385133362 29.771400523885287 0 0 -1
135 1 4 -0.5760999999999999 14.79772060289258 11.402469794721704 23.48817725893671 1 0 -1
136 1 5 0.1816 13.481404958528996 19.59849400274532 26.807503103714104 0 0 -1
137 1 5 0.131 13.275132879187069 19.723242212683168 30.243478901188674 0 0 -1
138 1 5 0.131 15.186770052398254 15.862888453797078 29.529331975310352 0 0 -1
139 1 5 0.131 10.54869374829935 19.83756636338092 27.540143022781827 1 0 -1
140 1 3 0.1716 13.596125576324038 15.891711394721986 31.02097181211554 0 0 -1
141 1 7 -0.398375 20.739377566188004 16.326371710147278 21.321907104124364 0 0 0
142 2 3 -0.1565 15.60919500300477 12.315567187644472 30.199423242935765 0 0 -1
143 1 1 0.743425 17.76191712887867 13.160430069914586 25.183735492940766 0 0 -1
144 1 3 0.014 15.430505101444009 13.968418625288017 25.592158675844786 0 0 -1
145 2 4 -0.5760999999999999 18.77645678057978 13.250399516683883 30.522797358680396 0 0 -1
146 1 7 -0.398375 11.448200039118516 20.094116527991932 24.921180594225067 1 0 -1
147 1 4 -0.5760999999999999 16.183256783475883 20.237452728903907 29.780983999524203 0 0 -1
148 1 5 0.1816 18.116236228426388 15.897823888741874 24.962966644899662 0 0 -1
149 1 5 0.1816 20.389308456892614 19.333475813351402 21.553075292637526 0 0 0
150 2 7 -0.4621 16.688661474071946 13.493491477728872 28.36679999868934 0 0 -1
151 2 8 0.23105 16.867965215078677 14.182685617024687 29.06574329468733 0 0 -1
152 1 5 0.131 10.468102767364204 12.52987351499747 24.169617529840092 1 0 -1
153 2 5 0.10745 16.14245060354857 11.2749616929991 26.976047029899302 0 0 -1
154 1 3 0.1716 11.671163684124837 16.557575696697235 25.798067140021892 1 0 -1
155 2 3 -0.23 20.60413735953621 16.359421616712236 27.75126250202636 0 0 -1
156 1 3 -0.1565 18.13537247202683 10.620036072208293 22.45180029271614 0 0 0
157 1 3 0.014 14.771214297502185 16.28735252538841 25.26747738756449 0 0 -1
158 1 5 0.131 15.743592792916893 17.80856962869759 22.290970364333752 0 0 0
159 2 3 -0.1565 15.80216080799431 11.259581119264258 28.007280306760453 0 0 -1
160 1 5 0.131 20.13432789830073 12.948249660745775 23.9688660073209 0 0 0
161 1 3 0.1716 20.848137435772514 11.462411802090804 22.43510125174618 0 0 0
162 2 5 0.131 15.816337356713923 13.202496264105642 30.86708682983792 0 0 -1
163 2 3 0.1716 14.887919812531509 11.201698150703635 30.773613881269235 0 0 -1
164 2 8 0.23105 17.268841504603742 13.377442489887633 27.538584320702164 0 0 -1
165 1 3 -0.23 10.859756072030033 18.918645499390806 27.045724146285206 1 0 -1
166 1 5 0.10745 10.81596009329925 17.740300344421332 28.87609195706401 1 0 -1
167 1 3 -0.23 10.961396079094087 17.75530650492641 27.77236646009008 1 0 -1
168 2 3 -0.1956 20.140920490362603 15.08035249074786 31.060328079989265 0 0 -1
169 2 5 0.1816 18.470138548920456 16.403655989355986 31.003333810916207 0 0 -1
170 1 3 0.014 17.43948810213138 20.82373718932078 20.995987743412616 0 0 0
171 1 5 0.131 19.38485326810087 20.87348846332849 25.54176298952922 0 0 -1
172 1 3 -0.1956 14.775511671029978 20.875993789433778 28.007573435804904 0 0 -1
173 1 3 -0.1565 11.161466651010137 10.829462335729488 21.286771568824644 1 0 -1
174 2 3 0.014 19.482077676630208 16.26758341854727 31.291555202772614 0 0 -1
175 1 5 0.131 17.072690563038947 10.490616146139423 22.422924727478037 0 0 0
176 1 8 0.23105 20.71776123711062 15.382634260694061 20.987661025039056 0 0 0
177 1 3 -0.1956 14.148880584701393 30.842237207075218 18.928874057452294 1 -1 0
178 3 7 -0.4621 20.266847378255154 25.614311753873253 11.613324349333077 0 0 0
179 1 7 -0.398375 14.227216036521952 24.251712168254542 18.665292790366653 0 0 -1
180 1 3 -0.1565 13.772064750339064 26.0512089737372 17.04400970955608 0 0 -1
181 2 7 -0.398375 16.627760785904833 27.583315372734983 11.772226389987798 0 0 -1
182 1 5 0.131 15.502558202359634 29.534664248209182 15.297243325254083 1 -1 -1
183 2 3 -0.1956 15.70162576418114 23.850922002879976 14.592122271332082 0 0 0
184 2 5 0.1816 14.171161780264146 26.6643134171369 12.442062572608267 0 0 0
185 2 3 -0.23 14.608621612090069 21.894322663409852 12.210687097691604 0 0 0
186 2 5 0.131 13.906079700244511 21.31402489567535 12.867478121802726 0 0 0
187 1 4 -0.5760999999999999 12.184053194148388 29.668058544398423 18.44259419031013 1 -1 0
188 3 7 -0.398375 12.695214637405984 28.974459283989553 11.043522803237888 1 0 0
189 2 8 0.23105 15.767374798194878 27.173827747313364 11.374402397520578 0 0 -1
190 2 3 0.1716 14.11831001730335 22.857204960372332 11.257350472184342 0 0 0
191 2 4 -0.5760999999999999 17.071594438120545 22.365874049035167 15.817737760860936 0 0 0
192 1 5 0.1816 16.393563032502836 21.133778340451403 17.81221627753149 0 0 0
193 1 3 -0.23 14.381984151549899 31.270372741825213 16.16402179384171 1 -1 -1
194 2 8 0.23105 12.189243267137732 23.05814651442689 10.89363850488712 0 0 0
195 3 5 0.131 20.032894975085153 25.795175374691933 14.303904101291478 0 0 0
196 1 4 -0.5760999999999999 19.45194066830696 31.06586571855409 17.94430941313276 0 -1 0
197 1 1 0.743425 17.540156411419886 29.563754837175367 20.09791279138024 1 -1 0
198 1 3 0.014 16.428909317171257 21.291284918158382 18.856756941772442 0 0 0
199 2 3 0.014 14.660864530235795 25.90683464137535 13.035631215487719 0 0 0
200 2 3 -0.1956 13.902025337555074 24.78587761432277 13.30536414145813 0 0 0
201 1 3 -0.23 12.921141055934676 26.73182064448909 16.181234636978136 0 0 -1
202 2 7 -0.398375 20.348648607098674 30.859795102996504 11.11617057942592 0 0 -1
203 1 5 0.131 20.732947859259358 28.016213515403493 15.331461847677954 0 -1 0
204 3 8 0.23105 19.424424099005652 23.835508156600227 16.506451771198968 0 0 0
205 2 3 -0.1565 15.071160445141672 23.563938726028265 10.483601813051587 0 0 0
206 1 3 -0.23 11.969417980839749 24.658157225051294 17.794774998980596 0 0 -1
207 3 3 -0.1565 20.294611004606363 24.834327818524255 13.905017371018033 0 0 0
208 1 3 0.1716 11.037973693166464 25.313601900965597 16.943468430981955 0 0 -1
209 2 3 0.014 16.5123922858827 24.94166016677585 14.244922801036322 0 0 0
210 1 1 0.743425 20.432178697216823 31.078919147120917 17.191048242222866 0 -1 0
211 2 3 0.014 14.341455074115308 23.825812367857434 14.228065620780255 0 0 0
212 2 3 0.1716 16.006927428609753 21.79770123968459 12.474294743693456 0 0 0
213 1 3 -0.1565 11.540271925236803 26.29591846820027 16.041218922471103 0 0 -1
214 3 8 0.23105 13.603691539641522 29.30091508013042 11.405878177607272 1 0 0
215 1 3 0.1716 16.750033362697412 31.233287771713506 15.667153229116984 1 -1 -1
216 3 8 0.23105 19.982637952726197 26.514552745212843 12.012388995714193 0 0 0
217 1 1 0.743425 13.116647589277592 30.323699593209675 17.98203253474511 1 -1 0
218 2 1 0.743425 12.770558662711274 24.432259027250343 12.38008826757337 0 0 0
219 1 3 0.1716 13.34204251870573 25.03563381788998 17.901002157209902 0 0 -1
220 1 4 -0.5760999999999999 14.03091173821334 22.231029878230387 17.62944254268262 0 0 0
221 2 1 0.743425 16.389841895650044 22.48423043291819 14.832557052813033 0 0 0
222 3 3 -0.23 10.833971336779864 30.432797065970487 10.681767408865563 1 0 0
223 3 4 -0.5760999999999999 20.66241716243881 25.122078437007428 18.070029087023897 0 0 0
224 2 5 0.1816 13.760699131557855 23.050523922914536 14.482496326312308 0 0 0
225 2 3 -0.1565 18.521471338012233 29.18892808293312 11.452262202729422 0 0 -1
226 1 4 -0.5760999999999999 17.397487750163123 28.384654601401813 19.805000006508845 1 -1 0
227 3 3 0.1716 10.539215736661083 30.6983279600941 13.524395419884966 1 0 0
228 2 7 -0.398375 16.462077377464382 21.548596304972687 13.779294784761348 0 0 0
229 1 5 0.10745 17.644836605172102 30.763426303033224 15.206884191045969 1 -1 -1
230 2 7 -0.398375 12.921440228867967 23.444774850967825 11.427270654709897 0 0 0
231 1 3 0.014 15.20293183617019 29.967563080093278 19.335109218560365 1 -1 0
232 3 3 0.1716 20.529621364331028 23.78345808704199 14.812784596282167 0 0 0
233 2 3 -0.1565 16.89978731640173 22.48225935104116 11.661159570721846 0 0 0
234 1 5 0.131 14.84119195558204 26.336304282625356 17.035300658517933 0 0 -1
235 2 5 0.1816 17.58583679959469 24.90312708406218 14.476522802330747 0 0 0
236 1 5 0.1816 15.231664163878655 28.83738432739235 19.20655810594065 1 -1 0
237 2 3 -0.1956 16.015889513968613 25.96544963315636 13.429111700227667 0 0 0
238 1 3 -0.1956 16.40251708416264 30.518069629147554 19.818627953572626 1 -1 0
239 1 5 0.131 11.530524479896004 23.81693874030447 18.382622102388307 0 0 -1
240 2 3 0.1716 19.307707481915646 30.02547836109216 10.556808295190466 0 0 -1
241 2 4 -0.5760999999999999 17.789177837564164 27.340646609791506 13.65332474801528 0 0 0
242 3 3 -0.23 11.658927212441903 29.733150248967757 11.607195281318676 1 0 0
243 2 5 0.131 17.942856993842142 22.52675483266169 11.80989645663484 0 0 0
244 1 5 0.10745 13.23956460387486 27.50923327404229 15.423828742512393 0 0 -1
245 1 3 -0.1956 15.536953355350235 22.205796783598764 19.385119651756145 0 0 0
246 2 1 0.743425 16.8570288221416 27.046235322780184 12.99328757687137 0 0 0
247 3 7 -0.398375 20.326321212706254 24.053225980773405 16.16864193488454 0 0 0
248 1 7 -0.398375 13.311607356870395 30.516746198826354 16.59504593362977 1 -1 -1
249 1 1 0.743425 14.560433022310919 22.911586104370055 18.503770459417982 0 0 0
250 2 4 -0.5760999999999999 11.724525532872663 25.13775835906617 12.359191409829467 0 0 0
251 3 5 0.131 12.270639892530495 29.35656989663975 13.652102200445093 1 0 0
252 1 3 -0.1565 15.532110475685416 30.58530875754493 15.658021588855274 1 -1 -1
253 2 5 0.131 18.80839884582459 29.22279782235845 12.526161555307016 0 0 -1
254 3 3 -0.23 20.492170718346678 24.560373580684402 12.52701127399774 0 0 0
255 1 8 0.23105 14.760602084730731 24.736972833738715 19.336454895142506 0 0 -1
256 1 8 0.23105 12.917831534709512 29.726231068521514 16.133531925570328 1 -1 -1
257 1 5 0.131 10.845817845675011 26.793248196485994 15.364898977174063 0 0 -1
258 2 3 -0.23 17.424093876218873 28.43345506963991 10.965249155699878 0 0 -1
259 1 8 0.23105 20.765590804528735 29.103693428931784 17.545230614572176 0 -1 0
260 3 3 -0.1565 11.573599340792535 29.87866239172195 13.014429906495915 1 0 0
261 1 3 0.014 15.52129917041518 22.361195594579577 20.760783610774407 0 0 0
262 1 8 0.23105 20.571700864695696 23.277231253685905 19.79773525015701 0 0 0
263 2 3 -0.23 16.42596414966872 23.242358608952188 10.579684993263173 0 0 0
264 3 8 0.23105 10.61196578070479 30.007875776482454 15.42264601193162 1 0 0
265 1 8 0.23105 19.508311069486357 29.21864533577307 20.532875297826138 0 -1 0
266 5 4 -0.5760999999999999 10.62324514476731 21.775726834939967 12.204666776603514 0 0 0
267 3 8 0.23105 19.98774407618725 25.51715571805235 10.665896036968377 0 0 0
268 1 5 0.131 20.643212104599755 21.131554089962393 17.992099147359895 0 0 0
269 1 7 -0.398375 18.742091359274053 29.949196078597485 20.65193515886083 0 -1 0
270 4 3 -0.1956 19.557702789441894 25.450405674111547 24.644315193282555 0 0 -1
271 4 3 0.014 19.580072152505522 26.234084129539138 25.838530964200135 0 0 -1
272 2 3 -0.23 18.879539507739718 30.095125640945362 30.12799121358062 0 0 -2
273 2 5 0.10745 15.076784316454482 30.169063459300627 27.87124428479942 0 -1 -1
274 4 3 -0.1956 20.732998628737374 26.2270319671185 26.65634517634458 0 0 -1
275 1 3 0.014 13.337761987473648 28.712799712181056 26.27873026468843 1 -1 -1
276 2 3 -0.23 14.692500894092023 31.143614679010508 29.82334295270251 0 -1 -1
277 1 4 -0.5760999999999999 20.13058159011352 21.970824430585925 21.984438982829946 0 0 0
278 1 5 0.131 18.63508085977249 23.56547740816066 28.766378983600166 0 0 -1
279 1 3 0.1716 17.90338446164502 22.340185389628118 25.19818111144139 0 0 -1
280 1 3 0.1716 12.424585621258823 27.72794169666136 21.954716878553477 0 -1 -1
281 1 5 0.131 14.53776140122617 27.418238763327984 21.74383358096371 0 -1 -1
282 1 4 -0.5760999999999999 11.554491614344355 22.303569633131023 24.62536091056144 0 0 -1
283 1 3 -0.23 17.1876301789257 23.479721941258706 25.737316830323138 0 0 -1
284 2 3 0.1716 17.880284366419996 29.286343570673242 29.615955416406536 0 0 -2
285 4 3 -0.1565 20.17186423786409 28.66457145209888 24.45183820120815 0 -1 -1
286 1 3 -0.1956 16.49804327832853 21.76053485479476 21.638243918793286 0 0 0
287 1 3 0.014 14.441445738051888 30.006156194181322 24.56459483036044 1 -1 -1
288 1 4 -0.5760999999999999 16.466990899911114 27.766208429287136 25.711131284766047 1 -1 -1
289 1 8 0.23105 16.794726635023533 25.75965948587761 27.773373768200013 0 0 -1
290 1 3 -0.1565 18.372112871327182 23.253606996014344 27.7877091526855 0 0 -1
291 3 5 0.1816 12.333263372452484 26.309428313170898 29.183100069564155 1 0 -1
292 1 3 -0.1956 14.448510610780275 28.96159706193378 25.438059051091948 1 -1 -1
293 4 4 -0.5760999999999999 17.90360461349799 25.307962500286425 23.050174899833205 0 0 -1
294 4 3 0.1716 20.37134734486828 27.9375100063556 23.27111379877265 0 -1 -1
295 2 5 0.10745 17.555464049727597 29.175981126046636 28.5401780219436 0 0 -2
296 1 3 -0.1956 12.965390146196611 21.65260750156064 26.397135537556952 0 0 -1
297 2 5 0.131 14.809156749670258 24.36892470258376 30.65049491654435 0 0 -1
298 1 3 -0.1956 14.523750371392367 23.276157448775603 27.423140850141603 0 0 -1
299 2 5 0.131 19.42353001832893 30.7813611808063 29.397968944348854 0 0 -2
300 3 3 -0.1956 11.391374734353915 26.990374753312416 31.064206189560977 1 0 -1
301 1 3 -0.1956 12.155317505161893 29.3934127372442 25.939962117185008 1 -1 -1
302 1 3 -0.1565 18.881036012042816 21.693970732966136 25.937511487767587 0 0 -1
303 1 3 0.014 12.22097457142687 30.57296404040251 25.180844323592435 1 -1 -1
304 1 1 0.743425 16.52380117343997 21.90629980799965 23.15826610358149 0 0 0
305 1 8 0.23105 15.457358539632768 25.88762026893298 24.199263280311676 0 -1 -1
306 1 7 -0.398375 17.72587021479389 21.989167400278106 23.870526548746263 0 0 -1
307 4 1 0.743425 18.818927229871903 25.94706588832607 23.486952921862734 0 0 -1
308 1 5 0.10745 19.79336181219253 21.552958164170047 27.81490829308939 0 0 -1
309 1 1 0.743425 15.340150515077006 27.752818197389317 25.282639865032866 1 -1 -1
310 1 5 0.1816 16.106142680081263 22.443347559124188 28.723365554676654 0 0 -1
311 1 7 -0.398375 16.51485502590364 24.77753161342658 27.678871204807248 0 0 -1
312 1 5 0.131 16.366131462083523 23.892269384541144 25.124663466015605 0 0 -1
313 3 1 0.6797 10.428973677083572 24.77072317049871 28.193336972516676 1 0 -1
314 1 4 -0.5760999999999999 14.449413430684913 25.537950803697964 27.739456485830946 0 0 -1
315 4 5 0.1816 20.50496289998555 23.721122302855704 23.65064787126145 0 0 -1
316 4 5 0.1816 18.781331474101005 26.977758216960165 25.88411847374121 0 0 -1
317 1 8 0.23105 18.540061335928886 22.09121427769524 23.27481589971214 0 0 -1
318 1 3 -0.23 13.689202292349753 27.380343113266903 22.40214848584295 0 -1 -1
319 3 3 0.014 11.461332468511994 26.226560222121247 29.90506559897058 1 0 -1
320 4 5 0.131 19.091632952316644 28.873905748138224 24.729342245022035 0 -1 -1
321 1 3 0.1716 17.363191394222312 23.905136603699436 27.050374691203057 0 0 -1
322 1 5 0.1816 13.349504268199052 27.799097442309584 26.896581462881898 1 -1 -1
323 1 3 0.014 15.169947327834207 22.227006795330574 28.15064774749943 0 0 -1
324 1 5 0.1816 14.832637909312721 22.993371793320627 21.306661077536333 0 0 0
325 1 3 -0.1956 13.38410401874556 30.87960419439568 24.423198509283964 1 -1 -1
326 1 5 0.1816 15.28562405856442 29.977267946026227 23.81638540863629 1 -1 -1
327 1 3 0.014 13.389049608543527 23.01175324120539 26.61097518492675 0 0 -1
328 3 4 -0.5760999999999999 13.733861398206253 27.246357701604087 30.895431936925153 1 0 -1
329 1 1 0.743425 10.836799702487898 28.67287399462776 26.118062276944222 1 -1 -1
330 4 3 0.014 20.505412983757907 24.425365383603552 24.486304028476102 0 0 -1
331 1 5 0.131 12.782122952496419 26.08786349840868 25.479009870012142 0 -1 -1
332 3 4 -0.5760999999999999 10.818674872852876 25.37666175911621 27.221415390511837 1 0 -1
333 1 1 0.743425 11.861622048113452 21.393610633321504 25.36365157395488 0 0 -1
334 4 7 -0.398375 19.377711458404594 27.038380629244248 22.800420785787146 0 -1 -1
335 2 5 0.131 16.24177077124654 27.99493298040922 30.102367584983995 0 0 -2
336 1 5 0.1816 11.332510887607608 31.153631569023208 25.088758275171237 1 -1 -1
337 1 3 -0.1565 12.659939547866433 26.60369169401479 24.547261715111627 0 -1 -1
338 1 3 -0.1565 11.331774485616169 27.74267984993348 22.87190997979375 0 -1 -1
339 4 8 0.23105 18.79765872253571 27.302334545505946 22.00458752861178 0 -1 -1
340 1 5 0.1816 12.942015640408572 23.828395827791688 25.969832009606638 0 0 -1
341 2 3 0.1716 15.207435076445119 31.047287142249825 28.51638892316105 0 -1 -1
342 2 5 0.131 14.115399545266051 30.33457697023805 30.142810260354675 0 -1 -1
343 1 3 -0.23 20.437800408217186 31.30333461450222 21.680525107882005 0 -1 0
344 1 3 -0.23 19.066635643619392 22.08734991600661 27.264733812724614 0 0 -1
345 1 3 -0.23 11.493146190879713 27.309688470792658 24.211358480122662 0 -1 -1
346 1 1 0.743425 15.148208524579818 24.60520288338927 27.67938028028101 0 0 -1
347 1 7 -0.398375 15.001379515542382 26.78537383979771 24.336640052070553 0 -1 -1
348 1 3 0.1716 13.759992345136673 26.805897321923617 23.6855248884047 0 -1 -1
349 1 4 -0.5760999999999999 15.42447396918052 22.000821380432097 23.68348639536844 0 0 0
350 2 5 0.10745 17.092953604251814 23.749271073669615 30.774457536738442 0 0 -1