LAMMPS data file via write_data, version 29 Aug 2024, timestep = 1500000, units = real

732 atoms
18 atom types
788 bonds
18 bond types
1264 angles
25 angle types
2040 dihedrals
31 dihedral types
818 impropers
9 improper types

10.112877576190415 31.661421926324316 xlo xhi
10.112877576190415 31.661421926324316 ylo yhi
10.112877576190415 31.661421926324316 zlo zhi

Masses

1 12.01
2 12.01
3 12.01
4 16
5 1.008
6 14.01
7 14.01
8 1.008
9 12.01
10 1.008
11 16
12 16
13 1.008
14 1.008
15 16
16 1.008
17 12.01
18 35.45

Pair Coeffs # lj/charmm/coul/long

1 0.086 3.39967 0.086 3.39967
2 0.086 3.39967 0.086 3.39967
3 0.086 3.39967 0.086 3.39967
4 0.21 2.9599 0.21 2.9599
5 0.015 2.5996 0.015 2.5996
6 0.17 3.25 0.17 3.25
7 0.17 3.25 0.17 3.25
8 0.0157 1.0691 0.0157 1.0691
9 0.1094 3.39967 0.1094 3.39967
10 0.01569 2.64954 0.01569 2.64954
11 0.21 2.9599 0.21 2.9599
12 0.21 2.9599 0.21 2.9599
13 0.015 2.5996 0.015 2.5996
14 0.015 2.5996 0.015 2.5996
15 0.155865 3.178 0.155865 3.178
16 0 0 0 0
17 0.06844 3.407 0.06844 3.407
18 0.265 3.47094 0.265 3.47094

Bond Coeffs # harmonic

1 461.1 1.3984
2 345.8 1.086
3 345.9 1.4906
4 345.9 1.4906
5 637.7 1.2183
6 637.7 1.2183
7 417.9 1.3859
8 417.9 1.3859
9 404.6 1.0121
10 404.6 1.0121
11 300.9 1.5375
12 330.6 1.0969
13 427.6 1.379
14 400.1 1.3513
15 371.4 0.973
16 371.4 0.973
17 450 1.0118
18 267.4 1.8029

Angle Coeffs # harmonic

1 66.6 120.02
2 64.3 120.33
3 64.3 120.33
4 48.2 119.88
5 68.7 122.6
6 68.7 122.6
7 68.3 120.95
8 68.3 120.95
9 48.4 116.07
10 48.4 116.07
11 63.8 123.71
12 48.3 117.55
13 67.7 115.25
14 74.2 123.05
15 62.9 111.51
16 46.3 109.8
17 39.4 107.58
18 69.2 113.45
19 49.9 106.55
20 75.9 122.1
21 40.1 115.12
22 55 108.15
23 61.111 114.705
24 58.8 120.69
25 40.1 115.12

Dihedral Coeffs # charmm

1 3.625 2 180 0.5
2 3.625 2 180 0
3 3.625 2 180 0
4 3.625 2 180 0
5 0.45 2 180 0
6 0.45 2 180 0
7 3.625 2 180 0
8 3.625 2 180 0
9 3.625 2 180 0
10 3.625 2 180 0
11 3.625 2 180 0
12 3.625 2 180 0
13 3.625 2 180 0
14 1.05 2 180 0
15 1.05 2 180 0
16 0.45 2 180 0
17 2.3 2 180 0
18 2.3 2 180 0
19 1.05 2 180 0
20 2.3 2 180 0
21 2.3 2 180 0
22 1 2 180 0
23 2.3 2 180 0
24 2.3 2 180 0
25 0.25 2 180 0
26 0.2 1 180 0
27 0.18 3 180 0
28 0.16 3 0 0
29 0.15 3 0 0
30 10.5 2 180 0
31 1 2 180 0

Improper Coeffs # harmonic

1 1.1 180
2 1.1 180
3 1.1 180
4 1.1 180
5 1.1 180
6 1.1 180
7 10.5 180
8 1.1 180
9 1.1 180

Atoms # full

1 1 1 0.743425 15.771020158818859 10.966262672898546 17.345606365199796 0 0 2
2 3 1 0.743425 14.04902139977418 10.480718177623164 10.407843095079377 0 0 2
3 1 5 0.1816 17.67791674814892 13.050242248291882 17.12869399352867 0 0 2
4 4 3 -0.23 10.54694959179347 19.369619628941663 12.622257078148289 1 0 2
5 1 5 0.131 20.026433575308765 13.956490316037211 13.95260198610394 0 0 1
6 3 3 -0.1565 14.951590777009816 14.260736431056738 20.33204454085952 0 0 1
7 4 1 0.6797 12.188614312433291 14.033344954691893 10.188564216208967 1 0 2
8 1 8 0.23105 11.758301713279044 13.380958106395125 13.926281329353912 0 0 2
9 1 3 0.1716 13.654904414344625 12.59426669425849 14.249610090037383 0 0 2
10 4 7 -0.398375 12.399967579503873 18.653776436435656 14.097099861916982 1 0 2
11 1 3 0.014 16.632973656155443 13.358472338838478 17.0267441212491 0 0 2
12 1 7 -0.398375 15.4498781261026 10.202955155863215 16.259766635147137 0 0 2
13 3 5 0.131 19.302316933644846 10.416587071269214 17.879357880447536 0 0 2
14 1 1 0.743425 12.718665312932728 14.278731254700288 15.643898498151495 0 0 2
15 3 5 0.131 18.42062631510037 20.4141768034953 18.53619080234448 1 -1 1
16 1 7 -0.398375 18.852752198152476 15.102687667503911 15.996486284278376 0 0 1
17 1 3 -0.1956 13.97707887223017 14.19346847762737 16.46167558357581 0 0 2
18 1 3 -0.23 13.820453668760537 11.346357616229875 14.907054871972019 0 0 2
19 1 3 -0.1565 20.617006357125103 16.836576815647838 15.710113063558442 0 0 1
20 1 3 -0.23 19.955222864074003 15.595366718693885 15.302900260572182 0 0 1
21 1 8 0.23105 18.955866186067254 14.173035984078451 16.37115222847557 0 0 1
22 4 5 0.1816 10.406951443815858 16.833374318388394 14.35643277541213 1 0 2
23 1 3 -0.23 18.12814667806415 16.556879528352525 12.308200544178433 0 -1 2
24 2 5 0.1816 10.51713275261016 10.591262991511712 19.225266916780686 0 0 2
25 1 3 0.014 14.230190376961556 12.971542625963398 17.176294539218834 0 0 2
26 1 8 0.23105 15.962293445753213 17.90913795450435 13.281967763796146 0 -1 2
27 1 3 -0.23 15.962963260193279 12.319103184866362 13.39609708750083 0 0 2
28 1 3 0.1716 17.795315928971682 17.910242887487357 12.394313097019015 0 -1 2
29 4 3 -0.1565 10.576171952835868 19.928676391721755 15.02236418559563 1 0 2
30 1 3 -0.1956 20.282455835496243 20.374471030647754 15.400993914529959 0 -1 2
31 4 8 0.23105 13.045790008831206 19.29882568004865 14.558565904236927 1 0 2
32 1 3 -0.1565 18.36828199702984 18.794166544976935 11.441282561860474 0 -1 2
33 1 5 0.131 20.300168675645825 17.34743361238312 16.565031381964 0 0 1
34 3 5 0.131 17.509956508613207 11.787623822509767 10.958599408767281 0 0 2
35 3 8 0.23105 16.032571283827128 12.0149622206515 20.81262616705354 0 0 1
36 3 8 0.23105 18.924916161868005 10.380505318575315 20.13474427898001 0 0 2
37 1 3 -0.1956 16.35919686860532 14.663682292241472 16.517706368132647 0 0 2
38 1 4 -0.5760999999999999 15.601635099302806 19.8402859807009 14.330606281757946 0 -1 2
39 1 5 0.131 17.13341718944576 10.737224783441098 14.314519076267846 0 0 2
40 3 3 0.1716 12.113167665522838 13.993733190085814 19.966148869488407 0 0 1
41 1 1 0.743425 17.557904502540175 15.521445198839025 16.043901504302426 0 0 2
42 3 8 0.23105 10.535858816777449 12.763727348536495 19.489592318718117 0 0 1
43 3 7 -0.398375 10.750110577245382 13.773135163795834 19.73341880371454 0 0 1
44 1 7 -0.398375 16.850962390878852 18.304519978887555 13.38445683416877 0 -1 2
45 3 5 0.131 14.598364496730033 18.44293877481807 18.31660381737428 1 -1 1
46 1 3 0.014 19.2548104134339 19.709802015573644 14.739178128662212 0 -1 2
47 3 5 0.131 16.030648554810192 14.353622329775403 20.512618472486302 0 0 1
48 4 5 0.1816 13.397272618703207 15.993747415692638 11.437499084954073 1 0 2
49 1 3 0.1716 15.061665007104347 10.669013107132539 14.98958767274496 0 0 2
50 4 1 0.743425 12.909691074958369 17.51625532999561 13.542344921445014 1 0 2
51 4 3 0.014 12.395105841507956 15.760492197141138 11.821105761818075 1 0 2
52 1 5 0.131 18.08601070257797 19.838112094076603 11.350709733416455 0 -1 2
53 1 4 -0.5760999999999999 11.839111289371349 15.082756833256777 15.987114974797626 0 0 2
54 4 3 -0.1956 11.591417521933527 14.781447146698508 11.26754326390559 1 0 2
55 3 5 0.131 12.387184974474328 16.157582285335728 19.30909534311367 0 0 1
56 3 4 -0.5760999999999999 13.128023622779624 10.743808206342173 11.157973204203337 0 0 2
57 4 3 0.014 10.233683653212456 14.616704193638837 11.785231642819289 1 0 2
58 3 8 0.23105 14.758320739324152 12.404535211518278 10.604233035115854 0 0 2
59 1 5 0.131 13.023013337386814 11.029508749679671 15.640732609463221 0 0 2
60 4 3 -0.23 11.145788797839531 19.29814733588733 13.86895516021785 1 0 2
61 1 3 -0.1956 15.563240904859692 12.487821387658315 17.32837004822036 0 0 2
62 1 5 0.10745 16.71917643207525 12.554072263659956 12.676426759368773 0 0 2
63 3 3 -0.23 14.168283064043573 15.357857590275955 19.935461166848853 0 0 1
64 1 7 -0.398375 12.605353333151475 13.382949207623813 14.590043008768848 0 0 2
65 3 3 0.1716 16.53803202176335 19.34992973029436 18.150015767854196 1 -1 1
66 4 3 -0.1956 11.94780391674153 16.51729186667846 12.889203940591342 1 0 2
67 1 4 -0.5760999999999999 16.272878022793314 10.392798610211134 18.342042688183167 0 0 2
68 3 3 -0.1565 12.791534551723286 15.196192300542002 19.692965940397762 0 0 1
69 3 8 0.23105 12.538214166170965 20.458162650506125 19.237948773582612 1 -1 1
70 1 5 0.1816 14.897247600785752 15.848681857009176 15.56797051545048 0 0 2
71 4 5 0.131 10.929967298515564 18.864669195144685 11.696136527344711 1 0 2
72 4 4 -0.5760999999999999 14.091988541793707 17.254484768912477 13.529268180435635 1 0 2
73 4 5 0.131 11.015811691900101 19.822740233355933 15.976450143126945 1 0 2
74 1 5 0.131 14.684085325762213 13.931780711949305 12.834678451543235 0 0 2
75 3 5 0.10745 14.599053451166169 16.345111280775598 19.633592931331638 0 0 1
76 1 3 -0.1565 20.546462224963673 14.917872394777325 14.169945807094036 0 0 1
77 1 5 0.10745 19.35549689513359 15.039876299184728 11.25397503972745 0 -1 2
78 1 3 -0.1565 19.69730624055039 17.041286277545346 10.497105577160008 0 -1 2
79 1 3 0.1716 19.08491884485691 16.119306591800594 11.320833996520978 0 -1 2
80 3 5 0.10745 16.949518999061972 18.462718199119337 17.680405536345532 1 -1 1
81 1 3 -0.1565 16.147020343754306 11.17649018566183 14.239658303810897 0 0 2
82 1 3 -0.1565 14.732893824321916 13.019057718475008 13.459339535869361 0 0 2
83 1 5 0.131 17.64877625823026 15.791898808943266 12.871941548115762 0 -1 2
84 1 4 -0.5760999999999999 17.32031525849005 16.666678065297155 15.677237162656454 0 0 2
85 1 5 0.1816 19.48499047774506 18.730271586751943 14.22791069942002 0 -1 2
86 3 3 -0.1565 15.183294998795118 19.37989626903211 18.46097129513695 1 -1 1
87 1 5 0.1816 13.456791508473465 12.290004836409034 17.494141505272424 0 0 2
88 1 3 0.014 15.087584207601033 15.009070069869693 16.18553641868313 0 0 2
89 1 3 -0.1956 17.90380598571215 20.159244615271827 14.748535531094515 0 -1 2
90 1 3 -0.23 19.288124155329605 18.36670848101283 10.45998147233427 0 -1 2
91 1 1 0.743425 16.718500308004824 19.4550704813423 14.099255626628253 0 -1 2
92 3 3 -0.23 17.342761132745306 20.408164442827346 18.56780521080752 1 -1 1
93 3 7 -0.398375 13.40962830589648 20.347610929293808 19.81183143458696 1 -1 1
94 3 3 -0.23 14.622981100114794 20.523176490652336 19.14265365931597 1 -1 1
95 3 3 0.1716 14.343190901980304 13.021291556824865 20.609893682947362 0 0 1
96 4 3 0.014 10.698776413767307 16.24577693036265 13.468173154706658 1 0 2
97 3 5 0.131 12.457348852983863 11.998565650574385 20.601538912033835 0 0 1
98 3 3 -0.23 12.924814177867296 12.88408549531987 20.417500571896046 0 0 1
99 2 4 -0.5760999999999999 12.871803262982494 10.152813417464433 18.571409050640945 0 0 2
100 3 3 0.014 13.759334282571544 17.861074114387705 27.952568875991727 1 -1 1
101 3 7 -0.398375 12.554066403449555 14.650746329430248 28.196203317886837 0 -1 1
102 3 5 0.10745 19.371699725100818 11.72279203821195 31.086062242083585 0 0 1
103 3 5 0.131 17.730207086827264 19.730521410779968 25.56839746834443 0 -1 2
104 5 5 0.1816 20.49002394534418 14.944889138553643 29.376788367766135 0 0 1
105 3 7 -0.398375 18.425053844985392 17.687481807468533 24.10815708045698 0 -1 2
106 3 3 0.1716 10.806616616497895 19.35775845770973 25.3340687616125 1 -1 1
107 3 3 0.1716 16.092644352387843 14.09556379158289 27.235777019356735 0 -1 1
108 3 1 0.743425 13.355338394998167 20.3948241750855 21.222255701577044 1 -1 2
109 3 1 0.743425 18.024630318132214 10.420551913684136 26.358288321441034 0 0 2
110 3 3 0.014 10.35268800031763 16.24677150872112 21.448927569676925 1 -1 1
111 3 5 0.131 16.953078591414663 14.609424403621055 25.270432757261613 0 -1 1
112 3 5 0.1816 10.685859848508777 15.3746898619972 22.09198292484389 1 -1 1
113 3 3 0.014 14.977470644716604 16.189908259257525 29.242835079600525 1 -1 1
114 3 3 -0.1956 14.672950010009355 20.24254501276402 21.966968450391104 1 -1 2
115 3 7 -0.398375 14.938770309039958 11.560585089405842 31.657743318257456 0 0 1
116 3 3 -0.1565 13.605501643553733 14.569835325625387 25.974732438643937 0 -1 1
117 3 3 -0.23 12.01563641929176 20.61941989600601 27.50502768193442 1 -1 1
118 3 5 0.10745 14.708314385212395 14.49173561767092 24.1270466173539 0 -1 1
119 3 3 -0.23 19.636011423844668 20.78728186350722 25.623344822918277 0 -1 2
120 3 3 0.014 16.54852289330457 10.816492952566783 24.350197062344247 0 0 2
121 3 5 0.131 14.817893995065416 13.324188796477115 28.86408560915688 0 -1 1
122 3 3 -0.1956 16.560776621108637 18.948047720908647 22.8947029353806 1 -1 2
123 3 3 -0.23 18.452916470920332 11.601102066145076 30.59520350418099 0 0 1
124 3 3 0.1716 16.111317656481486 11.445125049398483 30.838128217501755 0 0 1
125 3 3 -0.1956 10.347444239695106 17.51383853709358 22.040571235343954 1 -1 1
126 3 4 -0.5760999999999999 14.028484697510883 11.42857045095182 23.0690496875555 0 0 2
127 3 3 -0.23 16.03029232476042 10.984452733903314 29.473737419644994 0 0 1
128 4 14 0.4315 11.841214618788074 12.750717231385915 30.488672483102985 0 0 2
129 3 3 -0.1956 17.714336674553135 10.339937981899032 24.938871414877024 0 0 2
130 3 5 0.1816 17.108685759747637 10.447162325318546 20.991286059031268 0 0 2
131 3 3 -0.1565 18.810912492087425 19.706794962623185 25.267693397547333 0 -1 2
132 3 3 -0.23 12.755264949348275 20.309605033632213 26.335762817810938 1 -1 1
133 5 4 -0.5760999999999999 19.544114750175424 15.025735627007569 25.801570179325445 0 0 1
134 3 1 0.743425 15.092816766168845 19.782107784009458 27.015729378849237 1 -1 1
135 3 3 0.1716 17.184986600800894 11.074951747233916 28.635493790809274 0 0 1
136 3 5 0.1816 18.562738046980755 19.94333663451604 22.540367171769077 1 -1 2
137 3 3 -0.23 16.06009958669797 14.413631011579032 25.85221721622434 0 -1 1
138 3 3 0.014 16.176550275649323 17.860079241063886 28.022971752070095 1 -1 1
139 3 3 0.014 15.208261854878998 19.037195397364467 22.437610444291536 1 -1 2
140 3 5 0.1816 15.750029288646905 11.2453044225127 24.97301539434911 0 0 2
141 3 7 -0.398375 10.220761413508907 18.79912024478026 24.180678246642817 1 -1 1
142 3 4 -0.5760999999999999 18.436707412110163 16.064228537196605 28.873517571811163 1 -1 1
143 3 4 -0.5760999999999999 11.48372976049047 16.350612473676275 29.29654028596977 1 -1 1
144 3 1 0.743425 17.07380366070469 17.735878830814546 23.639809741449195 1 -1 2
145 3 5 0.1816 14.979437612725409 15.358527159418825 29.937991116182268 1 -1 1
146 3 3 -0.1956 16.279129946260202 10.83871396650657 22.947585371492018 0 0 2
147 3 5 0.1816 12.794036976068705 18.172608959484343 27.614416142234013 1 -1 1
148 4 4 -0.5760999999999999 13.33915378060712 14.270964035532629 31.4013718779747 1 0 1
149 5 3 -0.1956 20.801167628166787 13.902757273858404 27.45279716664475 0 0 1
150 3 7 -0.398375 17.158189124735593 14.420124441956187 28.105638175150734 0 -1 1
151 3 3 0.014 17.274127874398122 10.31040690812086 22.080296067280504 0 0 2
152 3 1 0.743425 10.699355670621934 17.69840642577872 23.530312225388272 1 -1 1
153 3 7 -0.398375 15.069292072018436 11.94460252129569 21.111584982824027 0 0 1
154 3 3 -0.1956 13.7218933024022 16.69673183613796 28.79118682862236 1 -1 1
155 3 7 -0.398375 17.05171688260488 10.76202002285346 27.27833120401842 0 0 1
156 1 8 0.23105 20.16982212262437 18.822900859478064 30.238656379572333 0 -1 1
157 3 5 0.131 19.35374222819922 11.554451513135241 28.69579816189278 0 0 1
158 5 3 0.014 20.851533769733866 14.048981570635313 28.891326028261762 0 0 1
159 3 4 -0.5760999999999999 19.16772517221915 10.22101445526173 26.710325881458683 0 0 2
160 1 8 0.23105 19.23310774920661 20.08809617043236 30.857154664865305 0 -1 1
161 5 1 0.743425 20.510209739845052 15.093705986341117 26.5785672082325 0 0 1
162 3 5 0.1816 17.163553828953958 18.296179485219998 27.844794538577588 1 -1 1
163 3 5 0.131 12.66331282167993 14.94710241050006 25.54234881146316 0 -1 1
164 3 3 0.1716 14.778055137211464 14.47170832876765 25.195227948005353 0 -1 1
165 3 3 -0.23 13.633143751405782 14.324245157242324 27.34136996104526 0 -1 1
166 1 5 0.10745 20.408072140408045 16.73695355580857 31.33734862540289 0 -1 1
167 3 3 0.1716 19.313218759021737 18.624945057452152 24.54928904233204 0 -1 2
168 3 8 0.23105 18.821893039164845 16.75881832525895 24.187979385852426 0 -1 2
169 3 3 0.1716 10.652545281362892 20.469952780641464 27.51600468563197 1 -1 1
170 4 12 -0.5351 11.388003451391292 13.074450157112436 31.25413406515578 0 0 2
171 3 3 -0.1565 12.163479741352734 19.68515743098786 25.243206486383468 1 -1 1
172 4 4 -0.5760999999999999 10.40020355930329 10.634050631472569 25.87364331397642 1 0 1
173 3 8 0.23105 16.10535702605509 10.659306539368751 26.937771026565866 0 0 1
174 3 5 0.1816 14.56810321373151 18.13022042198843 22.51442398439199 1 -1 2
175 3 4 -0.5760999999999999 16.14343288627811 20.413031245433015 27.10546745434417 1 -1 1
176 3 8 0.23105 11.70533695233014 14.050943305860327 28.111186451926454 0 -1 1
177 3 1 0.743425 17.33118197698378 15.70195193157383 28.666423788965613 1 -1 1
178 3 1 0.743425 12.497304396281635 15.904826983671274 28.80679408837563 1 -1 1
179 3 3 -0.1956 16.176036366226636 16.652942941022285 28.740088768340133 1 -1 1
180 3 3 -0.23 20.696146634476786 18.579956618957233 24.31718179167707 0 -1 2
181 3 3 -0.1565 14.867768736685347 13.79081493070993 27.893720507459904 0 -1 1
182 3 3 0.014 17.453561377187707 20.012968418008377 22.528138518334995 1 -1 2
183 3 3 -0.1565 18.366137709046583 11.437255484715491 29.210003276209367 0 0 1
184 3 4 -0.5760999999999999 11.301243312289275 16.792065853468195 24.071490118843546 1 -1 1
185 3 1 0.743425 15.002879043019027 11.486045406590366 22.389102174040513 0 0 2
186 3 5 0.131 15.028513035667487 10.784752843614434 29.083723069291512 0 0 1
187 3 4 -0.5760999999999999 16.49266123687639 16.672318763626354 23.56220389276427 1 -1 2
188 1 7 -0.4621 19.801918286479683 19.227798746300998 31.066765419541834 0 -1 1
189 3 3 -0.1956 14.968382157391773 18.513836312967555 27.662064261516782 1 -1 1
190 3 8 0.23105 17.99410857780764 13.891508405576726 28.02476256184582 0 -1 1
191 3 3 -0.1565 17.32821959392314 11.646241986939884 31.409141140344506 0 0 1
192 3 5 0.131 12.676431809350351 19.489079505196752 24.35343565380482 1 -1 1
193 3 4 -0.5760999999999999 12.344272163986815 20.428838474617997 21.841128022793743 1 -1 2
194 3 7 -0.398375 14.074647195426762 20.486528700637685 26.330020872958215 1 -1 1
195 3 5 0.131 12.545320467525077 20.862773391815264 28.370230351286118 1 -1 1
196 1 3 -0.1956 20.096783516183002 25.862265106203566 12.43110451059926 0 -1 2
197 1 1 0.743425 18.97589862459541 26.640043507171058 11.82564218735238 0 -1 2
198 4 8 0.23105 12.088621922490523 25.739398207992565 11.265399595634337 0 -1 2
199 3 5 0.131 19.937374330078505 28.36389143563866 20.276026676301502 0 -1 2
200 1 5 0.1816 20.709878130343768 22.21538505045598 16.48363514011056 0 -1 2
201 2 14 0.4315 14.79909655938546 30.723812057377565 19.588144333849204 0 -1 2
202 4 3 -0.23 10.221466645304881 26.41483263230247 11.1405289370425 0 -1 2
203 2 5 0.131 15.23543067463199 28.075656172990087 13.645926475821252 1 -1 2
204 1 8 0.23105 16.890473144656315 25.094192097000644 16.729610673401716 0 -1 2
205 3 3 0.1716 19.776597937039128 30.136684436910326 16.702673753181738 0 -1 2
206 3 5 0.131 20.60941360645114 28.297192593281345 15.929774481272274 0 -1 2
207 4 5 0.131 11.453269574394083 28.092517399128464 10.267649852416792 0 -1 2
208 1 5 0.131 14.772811834257968 23.093628190303072 14.97786874748429 0 -1 2
209 2 5 0.1816 12.543441800620993 29.191757316240064 16.78165137134955 1 -1 2
210 2 12 -0.5351 14.023016114510092 30.54574757710149 20.109709674810784 0 -1 2
211 2 7 -0.398375 10.352137634551626 29.833989215715004 14.9199243426257 1 -1 2
212 2 5 0.131 11.306700384795635 27.201634699604877 15.145591056404017 1 -1 2
213 2 3 -0.23 11.474190321886326 29.25207145408789 14.283560352568198 1 -1 2
214 2 3 -0.1956 10.553223184203224 28.731595064674664 17.128855601017253 1 -1 2
215 1 5 0.1816 16.54674333750369 21.633857477595363 15.530518504712658 0 -1 2
216 4 3 -0.23 10.46891720955833 27.697326337139277 10.570542958588929 0 -1 2
217 1 8 0.23105 17.098438110151374 26.738279819405307 11.175038447960121 0 -1 2
218 2 1 0.743425 13.67132161727366 26.584940032989543 16.68215120471616 1 -1 2
219 3 5 0.131 14.885402436293171 22.58627110221174 19.76439258438555 1 -1 1
220 2 5 0.131 11.922995940729068 23.8318849427931 20.187760133444545 0 -1 2
221 3 3 0.1716 20.292607451943983 28.195854530792516 18.115712104013184 0 -1 2
222 1 7 -0.398375 17.663566902185448 26.149448333722127 11.734887669631826 0 -1 2
223 3 7 -0.398375 17.617690824544 22.421646393583696 19.996418553612948 1 -1 1
224 1 3 -0.23 15.869687146852252 24.518096383246945 12.049285351842666 0 -1 2
225 2 5 0.10745 14.325946666868818 30.271443063014583 12.647263463852832 1 -1 2
226 1 7 -0.398375 17.11888235483909 24.29377076321252 16.1558396978657 0 -1 2
227 3 7 -0.398375 20.728169931120743 26.85694187977611 18.127550795880488 0 -1 2
228 3 3 0.1716 16.805674576413114 21.57842462877816 19.161503567170946 1 -1 1
229 2 8 0.23105 14.612241130786131 26.264545194968594 14.975008668668044 1 -1 2
230 2 3 -0.1956 11.690233750620978 30.76936861109093 20.363254527509962 0 -1 2
231 3 5 0.1816 20.379703006428294 23.61207589596513 20.62201256691826 0 -1 2
232 3 3 -0.23 19.607207051191093 30.290777140073356 19.180977265396194 0 -1 2
233 2 7 -0.398375 13.745155745618879 26.62545727425651 15.332388005528038 1 -1 2
234 2 5 0.1816 11.931669293882823 25.27131687644275 18.164588446272273 1 -1 2
235 4 4 -0.5760999999999999 12.225541277156934 24.610839635781765 13.396755581804564 1 0 2
236 2 3 0.1716 13.685644629284528 29.625610500786024 13.167264470897475 1 -1 2
237 3 8 0.23105 18.22226001861314 23.16209554039437 19.519326778264976 1 -1 1
238 3 5 0.10745 19.83539368616271 30.617840644723657 15.728612756628246 0 -1 2
239 1 3 -0.1956 18.57689754380298 22.150496193398844 16.021913190955694 0 -1 2
240 1 3 0.1716 16.62142648574896 24.397897064758858 14.860138027709823 0 -1 2
241 3 3 -0.23 19.554049369838257 30.86569124572753 17.9114187448779 0 -1 2
242 2 4 -0.5760999999999999 14.506634429773294 25.98116357037508 17.33553604450169 1 -1 2
243 4 1 0.743425 11.222226598189398 25.18890649314425 13.017849274326947 1 0 2
244 1 5 0.131 18.0745152572636 25.936848235233597 14.355651484078793 0 -1 2
245 1 3 0.014 17.58850610085402 21.349502390707507 15.414637175387417 0 -1 2
246 1 3 -0.23 16.95372422576669 25.31601123712837 12.540605861397067 0 -1 2
247 3 3 -0.1565 15.398671288118633 21.676050916796353 19.253042074357776 1 -1 1
248 1 3 0.1716 15.102929513176706 23.792584721461576 13.038718853889977 0 -1 2
249 2 3 0.014 10.508493046015762 31.514358668422155 20.10182412393447 0 -1 2
250 1 8 0.23105 15.808156709431367 30.797521780878437 16.323716426313975 0 -1 2
251 2 3 -0.1565 11.844286808742478 24.668875808089126 20.817017030276133 0 -1 2
252 2 3 0.014 11.57300149409644 26.24085128335694 18.076744043310246 1 -1 2
253 1 3 -0.23 15.385141102885344 23.796021427467238 14.3938019028907 0 -1 2
254 2 3 0.1716 13.276509326590338 27.60568953124874 14.454017643194254 1 -1 2
255 1 4 -0.5760999999999999 19.273035617418767 27.74002991176639 11.399847501277062 0 -1 2
256 2 3 -0.1565 12.377310759406482 30.097933335104624 13.533227005486465 1 -1 2
257 2 3 0.014 11.931111602363787 28.43849717828765 17.149649264048424 1 -1 2
258 2 3 -0.1956 12.41188034449867 27.13745452371943 17.352608461608888 1 -1 2
259 1 5 0.1816 19.390809449634915 23.893707180547537 11.69823879794889 0 -1 2
260 1 5 0.131 15.469039493872913 24.403506784566016 11.062162067373992 0 -1 2
261 1 3 0.014 19.929149440637765 21.6260604080719 15.975065523791326 0 -1 2
262 3 7 -0.398375 19.393428486690677 31.07464706447363 20.324621276461635 0 -1 2
263 1 5 0.10745 14.22450070182503 23.260181670758925 12.675936905782189 0 -1 2
264 3 3 -0.23 20.22848313355837 28.820890743358824 16.828222948913186 0 -1 2
265 1 4 -0.5760999999999999 20.70184380848865 21.420931617866408 12.441972723897303 0 -1 2
266 1 1 0.743425 18.174902833279223 23.460230509082137 16.571471229557986 0 -1 2
267 3 4 -0.5760999999999999 19.837547789582857 25.939790617937238 20.016689515141593 0 -1 2
268 2 3 -0.23 14.18918763327368 28.4280573667878 13.68560226766839 1 -1 2
269 1 4 -0.5760999999999999 18.792428626931866 23.76796844639834 17.603805733016532 0 -1 2
270 4 5 0.1816 10.61548317968694 23.211473190918223 14.833807905103566 1 0 2
271 3 3 -0.1565 19.93241872421686 28.911799437757796 19.301061764827477 0 -1 2
272 2 3 -0.1956 10.173366986908484 26.553431336617326 18.2891137543762 1 -1 2
273 1 3 0.014 20.10895090312219 24.450569178696355 12.323733970695452 0 -1 2
274 1 3 -0.1565 17.30477240100009 25.2600087088613 13.910848168035626 0 -1 2
275 4 7 -0.398375 11.187532423966417 25.657771642575916 11.714603788175452 0 -1 2
276 2 1 0.6797 12.875861354009349 30.99729910712403 19.543091134326307 0 -1 2
277 2 5 0.131 12.075845243838279 31.092689899306478 13.075361714881563 1 -1 2
278 2 3 -0.1565 11.877436578140554 27.9224644704754 14.54486821512166 1 -1 2
279 3 1 0.743425 20.622161417506902 25.86301535479663 19.093314852258988 0 -1 2
280 5 8 0.23105 20.081334318633843 29.735177484219395 10.576953285711532 0 -1 2
281 3 3 -0.1956 13.949854324511385 30.73646162393706 31.18670451862003 0 -1 1
282 3 5 0.131 19.206821076197308 27.410022321710045 30.35569269927685 0 -1 1
283 2 7 -0.398375 11.057815594626824 27.646303005479375 23.622030080924453 0 -1 2
284 2 3 0.1716 11.356990212656925 26.713406404815974 22.644427215582763 0 -1 2
285 3 4 -0.5760999999999999 20.23582472293112 29.91690576126601 22.109586307030934 0 -1 2
286 2 5 0.131 13.440207810630818 26.509107291225263 23.19627475988092 0 -1 2
287 3 5 0.1816 16.613375860072292 22.638154694538954 25.31662114697313 0 -1 1
288 2 3 0.014 11.681840930759101 29.95604942206618 21.522481484223704 0 -1 2
289 3 8 0.23105 18.79422941348878 21.65754571110999 29.36377136912071 0 -1 1
290 3 5 0.131 13.667763504223476 22.943814773360693 27.652719275975798 1 -1 1
291 3 8 0.23105 10.210894824298528 27.45486378414018 28.17719791740639 1 -1 1
292 3 3 0.014 15.09856423514622 29.955334804074923 31.094105280188902 0 -1 1
293 2 3 -0.23 12.864494830549534 25.073864875459215 21.655379266519073 0 -1 2
294 3 3 -0.1956 18.081851997703883 24.11833827966254 25.84803562195746 0 -1 1
295 3 4 -0.5760999999999999 17.451994921757805 28.79050267902885 30.39298828366474 0 -1 1
296 3 8 0.23105 18.538719102465485 29.420640999549033 26.798462454455198 0 -1 2
297 3 8 0.23105 15.822071849812383 26.51144209257381 29.11335344060822 0 -1 1
298 3 3 0.014 15.871959540213656 25.934272793234943 25.73757356495335 0 -1 1
299 3 5 0.1816 16.01677318507015 30.302420726198683 31.624154986404026 0 -1 1
300 3 5 0.1816 19.638522133927268 30.85805673705358 24.426705653767947 0 -1 2
301 3 3 -0.1956 12.856826439516308 29.18583287927843 29.60910195728376 0 -1 1
302 3 4 -0.5760999999999999 20.777349878219532 21.11831292623219 21.28956164371537 0 -1 2
303 3 3 -0.23 13.015769261026739 24.385128923231395 29.080255350116442 1 -1 1
304 3 4 -0.5760999999999999 16.263214550566996 28.443141101397742 26.74429067833069 0 -1 1
305 3 5 0.1816 11.899048542772192 30.841987019876626 30.601191844190794 0 -1 1
306 2 1 0.743425 10.362506505429105 28.824854250672495 23.433331421673845 0 -1 2
307 3 7 -0.4621 18.056032768140366 22.332033942959303 29.485749837332328 0 -1 1
308 3 3 -0.1565 19.664865659226408 27.774164052085442 24.451995540001892 0 -1 2
309 3 7 -0.398375 16.64632101780579 26.966432368365954 29.401675315055893 0 -1 1
310 3 1 0.743425 17.31388584199836 27.8817083527072 26.41408182717312 0 -1 1
311 3 3 -0.1956 15.217318153908405 28.857651681256176 30.21056324837795 0 -1 1
312 3 4 -0.5760999999999999 10.598746627403333 29.668539012549974 29.133763314171716 0 -1 1
313 3 1 0.743425 14.395545314588746 24.11061325301901 24.835844220488617 0 -1 1
314 3 3 -0.23 18.43292529498356 23.721654947217736 29.593060845008672 0 -1 1
315 3 3 0.014 15.524331921159265 21.330862992702084 21.985954188782014 1 -1 2
316 3 8 0.23105 17.990738155361637 21.647573404269707 26.348128123654107 0 -1 2
317 3 5 0.1816 15.030857304340964 26.64411831235635 25.626605768670636 0 -1 1
318 5 7 -0.4621 20.256484081071854 30.322477296754965 31.335752614377302 0 -1 1
319 5 8 0.23105 19.47550070538442 30.7308634902402 30.829883219234148 0 -1 1
320 3 3 -0.1956 17.15356568242954 26.440881017019947 26.16111154619838 0 -1 1
321 3 3 -0.1956 16.930541040554253 21.2618735529253 22.027256512685337 1 -1 2
322 3 3 -0.1956 15.718726061575678 24.569670706760917 25.34849858538352 0 -1 1
323 3 3 0.1716 20.770085451652317 27.459774442131184 23.74707144580896 0 -1 2
324 3 3 -0.1956 18.44910312916769 31.332833340205028 22.62707344051642 0 -1 2
325 3 4 -0.5760999999999999 18.64516297304283 22.996497261676904 22.04686414116035 1 -1 2
326 3 7 -0.398375 18.544375603147152 28.49048827488791 26.437108642970454 0 -1 2
327 3 7 -0.398375 13.1433287555907 24.406144755769756 25.40925169822003 1 -1 1
328 3 4 -0.5760999999999999 20.359786984189544 23.64165767680747 25.735035285892753 0 -1 1
329 3 5 0.1816 14.134769025409224 27.5281266568394 28.827888205974077 0 -1 1
330 3 1 0.743425 19.230947830780618 23.200469660361044 26.016483969524288 0 -1 1
331 3 5 0.131 18.753931012782196 27.6208470191413 23.988801823811965 0 -1 2
332 3 5 0.131 12.07147989276596 26.63772015356107 26.097253440952898 1 -1 1
333 3 8 0.23105 12.32894548413909 24.10426053289149 24.897731405516463 1 -1 1
334 2 3 -0.23 10.315072886494391 26.272526622879347 21.75773553965594 0 -1 2
335 2 5 0.10745 13.772424090809608 24.515411960655257 21.4718815776903 0 -1 2
336 3 1 0.743425 16.498878571951884 28.21188541167964 30.01165247438297 0 -1 1
337 3 3 -0.23 12.28226266956649 25.959528513476624 26.937441476004622 1 -1 1
338 3 3 -0.1565 13.181520224872543 23.88558563809302 27.781186505169956 1 -1 1
339 3 8 0.23105 17.170723271285127 22.191823234008485 29.091227317812244 0 -1 1
340 3 7 -0.398375 18.974759596237067 21.830398654034568 26.21716840761811 0 -1 2
341 3 1 0.743425 19.463155946909158 30.74005504239442 21.657964634682788 0 -1 2
342 3 5 0.131 11.90825573805186 26.00425187678763 30.24660368471562 1 -1 1
343 3 3 0.014 18.22086740550446 25.50247165686062 26.222541258918753 0 -1 1
344 3 5 0.10745 20.58546089398703 23.352272714393923 30.01192825546589 0 -1 1
345 3 3 0.014 18.706021907478554 31.352952911938523 24.076828733824975 0 -1 2
346 3 1 0.743425 17.79881914908266 22.308758039154327 21.418505748765917 1 -1 2
347 3 3 0.1716 17.70012256118132 26.065663026135695 29.57225342636958 0 -1 1
348 3 3 0.1716 20.06638716465276 25.473623361315045 29.977500085172096 0 -1 1
349 3 5 0.1816 19.255323158329325 25.82116753761472 26.522099519102344 0 -1 1