LAMMPS data file via write_data, version 29 Aug 2024, timestep = 750333, units = real

824 atoms
18 atom types
832 bonds
18 bond types
1260 angles
25 angle types
2040 dihedrals
31 dihedral types
822 impropers
9 improper types

10.41879912902543 31.355500373489328 xlo xhi
10.41879912902543 31.355500373489328 ylo yhi
10.41879912902543 31.355500373489328 zlo zhi

Masses

1 12.01
2 12.01
3 12.01
4 16
5 1.008
6 14.01
7 14.01
8 1.008
9 12.01
10 1.008
11 16
12 16
13 1.008
14 1.008
15 16
16 1.008
17 12.01
18 35.45

Pair Coeffs # lj/charmm/coul/long

1 0.086 3.39967 0.086 3.39967
2 0.086 3.39967 0.086 3.39967
3 0.086 3.39967 0.086 3.39967
4 0.21 2.9599 0.21 2.9599
5 0.015 2.5996 0.015 2.5996
6 0.17 3.25 0.17 3.25
7 0.17 3.25 0.17 3.25
8 0.0157 1.0691 0.0157 1.0691
9 0.1094 3.39967 0.1094 3.39967
10 0.01569 2.64954 0.01569 2.64954
11 0.21 2.9599 0.21 2.9599
12 0.21 2.9599 0.21 2.9599
13 0.015 2.5996 0.015 2.5996
14 0.015 2.5996 0.015 2.5996
15 0.155865 3.178 0.155865 3.178
16 0 0 0 0
17 0.06844 3.407 0.06844 3.407
18 0.265 3.47094 0.265 3.47094

Bond Coeffs # harmonic

1 461.1 1.3984
2 345.8 1.086
3 345.9 1.4906
4 345.9 1.4906
5 637.7 1.2183
6 637.7 1.2183
7 417.9 1.3859
8 417.9 1.3859
9 404.6 1.0121
10 404.6 1.0121
11 300.9 1.5375
12 330.6 1.0969
13 427.6 1.379
14 400.1 1.3513
15 371.4 0.973
16 371.4 0.973
17 450 1.0118
18 267.4 1.8029

Angle Coeffs # harmonic

1 66.6 120.02
2 64.3 120.33
3 64.3 120.33
4 48.2 119.88
5 68.7 122.6
6 68.7 122.6
7 68.3 120.95
8 68.3 120.95
9 48.4 116.07
10 48.4 116.07
11 63.8 123.71
12 48.3 117.55
13 67.7 115.25
14 74.2 123.05
15 62.9 111.51
16 46.3 109.8
17 39.4 107.58
18 69.2 113.45
19 49.9 106.55
20 75.9 122.1
21 40.1 115.12
22 55 108.15
23 61.111 114.705
24 58.8 120.69
25 40.1 115.12

Dihedral Coeffs # charmm

1 3.625 2 180 0.5
2 3.625 2 180 0
3 3.625 2 180 0
4 3.625 2 180 0
5 0.45 2 180 0
6 0.45 2 180 0
7 3.625 2 180 0
8 3.625 2 180 0
9 3.625 2 180 0
10 3.625 2 180 0
11 3.625 2 180 0
12 3.625 2 180 0
13 3.625 2 180 0
14 1.05 2 180 0
15 1.05 2 180 0
16 0.45 2 180 0
17 2.3 2 180 0
18 2.3 2 180 0
19 1.05 2 180 0
20 2.3 2 180 0
21 2.3 2 180 0
22 1 2 180 0
23 2.3 2 180 0
24 2.3 2 180 0
25 0.25 2 180 0
26 0.2 1 180 0
27 0.18 3 180 0
28 0.16 3 0 0
29 0.15 3 0 0
30 10.5 2 180 0
31 1 2 180 0

Improper Coeffs # harmonic

1 1.1 180
2 1.1 180
3 1.1 180
4 1.1 180
5 1.1 180
6 1.1 180
7 10.5 180
8 1.1 180
9 1.1 180

Atoms # full

1 2 7 -0.398375 17.39443941753004 15.995775817214389 14.856994804820166 0 0 0
2 5 1 0.6797 13.347803299243836 19.493956319861258 17.357528382494678 0 0 0
3 1 3 0.014 16.818745471644963 11.01547246853469 19.898444209234608 1 0 0
81 1 5 0.10745 19.403546189024283 18.689225918370138 13.671802024894587 0 0 0
5 3 3 -0.1956 10.64214824340475 12.806458421421478 12.722295089149824 1 1 0
6 2 3 0.1716 16.828923397410506 16.657891852337976 13.767779298891833 0 0 0
7 2 5 0.131 15.077523909741751 17.294711422252615 14.903847732410226 0 0 0
8 2 1 0.743425 15.185052016435607 11.94359580800693 11.947776798633356 0 0 0
9 2 4 -0.5760999999999999 18.761920419864797 14.492433151042627 15.822069367010995 0 0 0
10 1 5 0.1816 20.20193753911836 12.902193677780746 18.40206493412651 0 0 0
11 1 3 -0.23 16.883315365763774 11.427855697511035 16.179341441153547 1 0 -1
12 3 3 0.014 11.007502536875984 11.82916914322726 13.667953470566461 1 1 0
13 5 18 -0.1036 13.593849854285724 19.028215249150165 19.083695267594123 0 0 0
14 2 4 -0.5760999999999999 14.352631497631915 12.005298744658106 12.842508394833455 0 0 0
15 1 7 -0.4621 11.712854401486203 17.284583258981066 11.090488096035076 0 0 0
16 2 3 -0.1956 19.011445377281717 12.10415928614287 12.36061142120541 0 0 0
17 2 5 0.1816 17.6509750087744 11.021640156464974 11.04659388977472 0 0 0
18 1 5 0.1816 17.781442991545244 11.502372311844296 19.97097209698489 1 0 0
19 2 5 0.131 18.49078262669911 16.28467886619676 12.426253250585114 0 0 0
20 2 3 -0.23 17.022503538856853 17.605903515698902 11.503182485252529 0 0 0
21 1 4 -0.5760999999999999 16.231493682673655 14.080108057516496 19.54465423011656 1 0 0
22 2 3 0.1716 15.041554165803282 18.069088665629497 12.90155432773967 0 0 0
23 1 5 0.10745 16.37551953971277 16.713810901633874 20.21053816228077 0 0 0
24 1 3 -0.1565 19.53605113070721 17.818048157721588 17.461588646457987 0 0 0
25 1 8 0.23105 16.679943568342257 19.525576662685534 17.32216082032888 0 0 0
26 2 8 0.23105 17.535239870254955 16.58735202197372 15.67067295320335 0 0 0
27 1 3 -0.23 18.510163987125463 18.667711372459447 16.96744438067792 0 0 0
28 2 5 0.1816 15.769849930917445 13.815986076083385 13.72514923149661 0 0 0
29 2 7 -0.398375 14.81936750415777 11.422475344698507 10.712882283178153 0 0 0
30 1 1 0.743425 17.78501502250881 19.87894119713554 19.00759722730058 0 0 0
31 1 3 0.014 14.470719541216024 11.171174992987835 19.314277370478983 1 0 0
32 1 7 -0.398375 17.548011348712528 19.26991972406163 17.786268047045013 0 0 0
33 1 4 -0.5760999999999999 18.805888062011178 19.64640520711509 19.622900023618143 0 0 0
34 2 3 0.014 17.740327704101077 11.756231922621353 11.833662274583954 0 0 0
35 2 3 0.014 19.08560532026502 13.136289324134172 13.321837544435827 0 0 0
434 3 1 0.743425 10.500991986537016 10.57459532864264 15.81834158717272 1 1 0
37 2 5 0.131 15.33815180680152 18.827379404011243 10.924664623503388 0 0 0
38 2 3 -0.23 15.770643801075607 18.225004301683626 11.710919919619787 0 0 0
39 5 5 0.1816 11.095830002956406 19.9472349098251 18.94284785135308 0 0 0
40 1 3 -0.1956 15.720186952281997 11.791185430809765 19.480311584834908 1 0 0
760 22 13 0.4315 18.355473010027648 20.191826831551854 11.863938455498944 0 0 0
42 5 4 -0.5760999999999999 14.28000696847383 19.372387113945518 16.57530642854583 0 0 0
43 1 5 0.131 18.662387407734528 15.828941471228712 20.018890032206333 0 0 0
44 1 3 0.1716 15.722786727571464 12.111868112036268 16.606591518811598 1 0 -1
45 1 7 -0.398375 15.84275603635579 13.230249714173151 17.44619889622316 1 0 -1
46 5 3 -0.1956 12.018509384436136 20.071346997788872 16.966740839147924 0 0 0
47 1 3 -0.1956 16.82947441512922 20.83493785656149 19.6180332571543 0 0 0
48 1 8 0.23105 15.99664365472959 14.139929663101983 17.017997703854647 1 0 -1
49 1 5 0.131 17.657673451517482 19.5526351938569 15.166264377548396 0 0 0
50 3 5 0.1816 11.70901227015199 11.058704002960386 13.367514715825537 1 1 0
51 2 3 -0.1956 17.92751382372232 13.766776498209394 13.801500038934474 0 0 0
52 1 1 0.743425 15.941439007862002 13.1277083684356 18.83939250371091 1 0 0
53 2 3 -0.1565 17.5361631263149 16.79039570520497 12.542547501785206 0 0 0
54 1 3 -0.1565 14.471021576513602 11.45507411148256 16.54732784102254 1 0 -1
55 1 5 0.1816 13.630405840327175 11.763817464825044 18.979528408335646 1 0 0
56 1 5 0.131 17.85018942915218 11.9200658911811 16.20145545893435 1 0 -1
57 2 5 0.1816 20.039112595591376 13.46397649388199 13.714345103244753 0 0 0
58 1 5 0.131 19.590867811835274 17.582895520548476 18.52213770899938 0 0 0
733 9 11 -0.5351 20.847998128453263 19.814362225347267 12.144952333830041 0 0 0
60 2 1 0.743425 20.30886100795242 11.46586675760891 11.948349963736014 0 0 0
61 2 3 -0.1956 16.566864038324795 12.361823337166822 12.340273442506678 0 0 0
62 2 5 0.10745 14.07771618279482 18.553374927567024 13.023552325976278 0 0 0
63 1 5 0.131 13.571760341565158 11.99992230022346 16.833248090988267 1 0 -1
64 2 1 0.743425 18.05393596923611 14.783483289985309 14.877015197825328 0 0 0
65 3 1 0.743425 10.876668541039459 12.469977662076491 11.270030117782257 1 1 0
66 3 4 -0.5760999999999999 11.975934193150701 12.081554035400643 10.927186332315799 1 1 0
67 1 3 -0.23 18.432537371104107 16.493535918957964 20.845789969232374 0 0 0
378 1 4 -0.5760999999999999 20.77463038066924 15.261810400411482 18.829896929713705 0 0 0
69 2 3 0.014 16.67014192075998 13.356915934230873 13.331169940978612 0 0 0
70 2 3 -0.23 15.610140079492915 17.34699810952088 13.958928279417908 0 0 0
71 1 3 -0.23 18.44689803976183 18.929659337706173 15.583356749688042 0 0 0
446 1 3 -0.1956 20.684434836024877 11.706256403032707 16.667115616761894 0 0 0
73 1 8 0.23105 11.748974360138432 18.252885546768617 11.401080203984437 0 0 0
4 5 5 0.1816 12.599653482052997 20.35583091138547 14.899480583305605 0 0 0
75 1 8 0.23105 11.597568233868845 16.60342369882039 11.834742122509578 0 0 0
196 1 4 -0.5760999999999999 19.28828105722967 10.49104500695635 18.07559516118668 0 0 0
435 1 3 0.1716 20.51741639008913 17.280838875967017 16.594686174578403 0 0 0
430 1 3 -0.23 20.461728010066118 17.614397054615505 15.222424520482841 0 0 0
79 1 3 0.1716 19.453421273968672 18.458844246187127 14.726282215874015 0 0 0
752 18 13 0.4315 15.078274318733671 15.804148102280548 11.065918824375641 0 0 1
753 19 11 -0.5351 13.37826061818833 20.455099103140125 11.40344332800375 0 0 0
82 5 3 0.014 10.975254154203716 20.23997230141791 17.90918365497596 0 0 0
68 5 3 0.014 11.811556678268412 20.49286882313222 15.632264797792198 0 0 0
84 2 8 0.23105 13.837166194634147 11.170437816597673 10.641715330118963 0 0 0
422 3 4 -0.5760999999999999 10.559916521015504 10.767119258608826 17.023139249659533 1 1 0
729 7 11 -0.5351 12.166820344325684 16.611621824114753 17.313690766511044 0 0 0
730 7 13 0.4315 12.961580837434656 16.056980532368904 17.19176275412836 0 0 0
731 8 11 -0.5351 15.462666571522334 16.251635935569652 17.28614353965258 0 0 0
732 8 13 0.4315 16.025849832195533 17.05172268675637 17.3508607205579 0 0 0
759 22 11 -0.5351 17.993113239481833 20.674246220016403 12.63795503440288 0 0 0
445 1 3 0.014 20.748135715214147 12.86376381339918 17.466917023492893 0 0 0
268 1 5 0.131 20.49938395932299 20.58825709320449 17.92163658871311 0 0 0
754 19 13 0.4315 14.235987301811749 20.830907084270553 11.10707108522384 0 0 0
751 18 11 -0.5351 15.034503541439914 14.919509062706906 11.483039052039738 0 0 1
86 1 7 -0.398375 11.969574859735744 15.494307408684756 25.3269015437303 1 0 -1
87 1 8 0.23105 17.646746129584262 19.895781685462328 24.13182887062069 0 0 0
88 1 1 0.743425 16.47627656845014 18.47469029900037 25.062540559935645 0 0 -1
89 1 3 -0.1956 16.89788629302616 14.695852581816515 25.245713751892918 0 0 -1
90 1 8 0.23105 14.851307783094738 18.393205790274003 27.49044146082594 0 0 -1
91 1 4 -0.5760999999999999 19.096480133757787 13.983578752299328 25.527700096156632 0 0 -1
92 1 3 -0.23 17.752968675253165 18.169169429648154 22.99408660807466 0 0 0
93 1 7 -0.398375 14.810044364826538 18.58497552760257 28.484852355771594 0 0 -1
94 1 3 -0.1565 11.45172808260078 16.7783448417222 27.29333927983909 1 0 -1
95 1 3 0.1716 11.14600061932753 19.121832293949986 25.733027390379355 1 0 -1
96 1 4 -0.5760999999999999 15.830016707289856 19.266017958164234 25.721615572102174 0 0 -1
97 1 5 0.1816 14.071568790984612 17.366062915994274 25.377343829608243 0 0 -1
41 1 5 0.131 12.362672384032575 10.840688059383293 20.942413102163126 1 0 -1
74 2 8 0.23105 17.121291083516635 18.49769267908464 30.635040104102718 0 0 -1
100 1 5 0.1816 15.344510906849093 13.226276056065462 25.512093671435647 0 0 -1
101 1 8 0.23105 16.88004468351417 12.469196630192984 23.91711075895276 0 0 0
102 1 5 0.10745 13.83866396723178 14.163884858279376 29.39624762928948 0 0 -1
103 1 3 0.1716 19.436108876078432 16.863975172468916 21.770476963961578 0 0 0
104 1 3 -0.1565 19.080444216189626 17.6953232638586 22.85958256174521 0 0 0
105 1 3 0.014 17.198563509058204 16.064701877247757 25.164823786785504 0 0 -1
106 2 1 0.743425 20.34136896657745 13.225911098682555 29.9158191355119 0 0 -1
107 2 5 0.131 20.546224824110165 15.308240634170978 27.142628704572697 0 0 -1
108 1 3 -0.1956 14.510991128157887 15.231565188182968 25.488405904184738 0 0 -1
109 1 5 0.131 11.573811980382953 15.886306954576105 27.903237231691545 1 0 -1
110 1 5 0.131 11.63106410162759 17.8483538457558 24.045104192519293 1 0 -1
111 1 5 0.1816 17.699550834347004 20.606438562266405 21.58086027358297 0 0 0
112 1 7 -0.398375 17.374554079647076 18.918648623677168 24.10773174925845 0 0 0
113 1 3 -0.23 11.801271065281025 12.054733975817387 22.65191705296311 1 0 -1
114 1 1 0.743425 13.098638899008206 14.730614836998425 25.604317120088428 0 0 -1
115 1 4 -0.5760999999999999 12.951460134881213 13.540384651324855 25.838871776555177 0 0 -1
116 1 3 -0.1565 16.771558920592923 17.780382591232627 22.052917121402473 0 0 0
117 1 8 0.23105 11.13277396388015 14.949953445626859 25.15096421848171 1 0 -1
118 1 8 0.23105 13.430705318705202 13.25965080938876 22.4993516447996 1 0 -1
119 2 3 -0.23 16.760389357535686 12.615918576534177 28.67797664230112 0 0 -1
120 1 3 -0.23 11.478465317400774 17.889863807303797 25.120186881844813 1 0 -1
121 1 3 -0.1565 13.2522670819272 17.920127085894393 30.255269033230753 0 0 -1
122 1 3 -0.23 14.348613170342988 16.214676940921144 28.90189223171606 0 0 -1
123 1 7 -0.398375 13.108854209785946 12.414873362472065 22.966410222546074 1 0 -1
124 1 7 -0.398375 17.840264776511432 12.656353185834657 24.18925831348586 0 0 0
125 1 3 -0.1565 19.939964263434025 12.864497297665809 22.912688679333527 0 0 0
126 1 8 0.23105 10.503651391642858 20.24431548077257 24.16053903069081 1 0 -1
127 1 3 -0.23 18.774236150937018 12.149750228134254 23.2779180805871 0 0 0
128 1 1 0.743425 14.961103698426472 19.929757305671888 28.817313188690786 0 0 -1
129 1 3 -0.1956 16.17001681394524 17.024844048958414 25.213109530577775 0 0 -1
130 1 1 0.743425 14.101616561441814 11.578344589349227 23.44841221532201 1 0 -1
156 1 3 -0.1565 18.498881411540104 10.917019200004454 22.644165295434693 0 0 0
132 1 5 0.131 19.830204516567754 17.964218723783265 23.606513061085543 0 0 0
133 1 3 0.014 13.531117858584823 20.72455309342469 26.904082715649995 0 0 -1
134 1 3 0.1716 14.17364779421821 17.582125579803034 29.233753969025543 0 0 -1
135 1 4 -0.5760999999999999 15.248344128932333 11.803900460445865 23.114482427450326 1 0 -1
136 1 5 0.1816 13.321279215619805 19.68910817273054 26.716377382486208 0 0 -1
137 1 5 0.131 13.070958881120191 18.963366201435534 30.488080643364526 0 0 -1
138 1 5 0.131 15.046725202716255 15.91792176963975 28.126627168179343 0 0 -1
72 2 4 -0.5760999999999999 19.506351496789424 18.946045716518576 30.51534484902277 0 0 -1
140 1 3 0.1716 13.672136273012766 15.212350576279048 29.625748535612512 0 0 -1
141 1 7 -0.398375 20.72078201971147 16.328935846018446 21.63571309538499 0 0 0
142 2 3 -0.1565 16.170393474006254 12.598542306232478 29.961781223083623 0 0 -1
143 1 1 0.743425 18.002918899936816 13.718819494789047 25.05917294452736 0 0 -1
144 1 3 0.014 15.560529782258431 14.283308944543684 25.426558571823804 0 0 -1
145 2 4 -0.5760999999999999 19.604428210004556 12.293220695684063 30.186662367388198 0 0 -1
146 1 7 -0.398375 11.10447140296631 20.297464790362774 24.978715365627153 1 0 -1
147 1 4 -0.5760999999999999 15.386880708365608 20.2652328077074 29.91214063825263 0 0 -1
148 1 5 0.1816 18.229205363280496 16.373690717678578 25.042657072153748 0 0 -1
149 1 5 0.1816 20.301533889564816 19.228987525247625 21.36579123005562 0 0 0
150 2 7 -0.4621 17.444505729025945 13.744104384876591 28.237518636108224 0 0 -1
151 2 8 0.23105 17.204471747886625 14.673313450948646 28.57684304069352 0 0 -1
786 35 13 0.4315 19.8244904539123 19.12220753751404 26.525212612289664 0 0 0
153 2 5 0.10745 17.089336004299895 11.488448615694399 26.841109496141385 0 0 -1
154 1 3 0.1716 11.64196400964448 16.7184335769647 25.901512097872484 1 0 -1
767 26 11 -0.5351 13.869950604285311 19.31842132426508 23.426896013696382 0 0 0
768 26 13 0.4315 14.290919338051019 20.12525631058264 23.791246455578488 0 0 0
157 1 3 0.014 14.83429199012568 16.605738161943204 25.36840540643449 0 0 -1
158 1 5 0.131 15.738039044712256 18.10328160475764 22.154312459734914 0 0 0
159 2 3 -0.1565 16.65156413981327 11.488497106087012 27.836484715449476 0 0 -1
160 1 5 0.131 20.190024162169042 13.817217460487933 23.369015855510163 0 0 0
166 1 5 0.10745 10.820233643423604 17.99808113986194 28.95468167953017 1 0 -1
162 2 5 0.131 16.239563055253385 13.48029982499884 30.59636669336589 0 0 -1
163 2 3 0.1716 15.48558829441062 11.44857176311255 30.421335231668245 0 0 -1
164 2 8 0.23105 18.143137082036954 13.677371307748 27.50219491879673 0 0 -1
165 1 3 -0.23 10.88831314866628 19.134027849248326 27.123552012898216 1 0 -1
139 1 5 0.131 10.607597512262242 20.046809683204867 27.633580793121343 1 0 -1
167 1 3 -0.23 11.012858346701117 17.967906436345853 27.889143664843566 1 0 -1
168 2 3 -0.1956 20.448593281197365 14.395851356243039 30.850735031970824 0 0 -1
169 2 5 0.1816 18.58780056879277 15.340123133576489 30.26521277998963 0 0 -1
785 35 11 -0.5351 19.50148936012228 18.243247032908325 26.231310741962567 0 0 0
746 15 13 0.4315 17.87081862668037 17.485170117448256 27.871287611085087 0 0 0
748 16 13 0.4315 18.268004953762173 20.399777937584755 28.962114240640705 0 0 0
173 1 3 -0.1565 11.54276597283581 11.237890012162277 21.530057667738596 1 0 -1
174 2 3 0.014 19.54157521860373 15.47265506842928 30.76184923848651 0 0 -1
78 2 1 0.743425 19.026808389898807 17.92304169891041 30.972218591807447 0 0 -1
176 1 8 0.23105 20.69683090077392 15.334754481147888 21.44292120993475 0 0 0
747 16 11 -0.5351 17.924036525715678 19.949702103186805 28.164899149216367 0 0 0
343 1 3 -0.23 20.500215592117076 11.147998581392585 21.283066708761726 0 0 0
737 11 11 -0.5351 10.803970209115178 12.736080620635747 28.273211085205183 0 0 0
738 11 13 0.4315 11.051948477212129 12.420796598313022 27.37774956947594 0 0 0
739 12 11 -0.5351 19.982711646966212 10.749618452058542 27.432766175484698 0 0 0
740 12 13 0.4315 19.295071818354945 11.020420896619166 28.07828449129634 0 0 0
741 13 11 -0.5351 11.92656634588452 17.59885007819152 21.508316234110826 0 0 0
742 13 13 0.4315 12.782265327286575 17.248101894753244 21.84050198978926 0 0 0
743 14 11 -0.5351 14.59174919904851 15.163733860659004 22.17150840436495 0 0 0
744 14 13 0.4315 15.344025730277515 14.644239304657182 21.81342030880632 0 0 0
745 15 11 -0.5351 17.51993481151833 16.716071591452277 28.368582758444983 0 0 0
336 1 5 0.1816 11.85656284013269 10.954569843700144 25.00433724463627 1 0 -1
152 1 5 0.131 10.88716844821751 13.228704071946588 24.246108769607833 1 0 -1
536 1 3 -0.23 10.719568417136587 12.577357391513306 23.397026431710398 1 0 -1
161 1 3 0.1716 20.76874440518297 12.390866990118031 21.88476749586803 0 0 0
83 1 3 0.1716 17.124132942693784 16.992640070242473 20.946312908590034 0 0 0
80 1 3 -0.1565 12.736167135512952 15.57509754428909 30.61616375640275 0 0 -1
36 1 3 -0.23 12.546697447963911 16.928470789415407 30.969145027167507 0 0 -1
76 2 7 -0.398375 17.663931749851464 17.865502393734577 31.21939703982369 0 0 -1
77 2 3 -0.1956 19.927629621465098 16.75988476625481 31.2026189323898 0 0 -1
325 1 3 -0.1956 13.877776874531952 10.430469216354947 24.3861323422 1 0 -1
59 1 5 0.10745 12.20412673348885 14.78836690969006 31.144205537032683 0 0 -1
177 1 3 -0.1956 14.368254912254981 30.705402259394948 19.300987378316496 1 -1 0
178 3 7 -0.4621 20.12974758455936 26.674662107678014 11.200933838362005 0 0 0
179 1 7 -0.398375 13.378426767499665 24.314760902070372 19.028257720679775 0 0 -1
180 1 3 -0.1565 12.984875502126757 26.183256476202647 17.5378984884268 0 0 -1
181 2 7 -0.398375 16.57240980038678 28.26925895478774 12.17058026756784 0 0 -1
182 1 5 0.131 15.603639848899578 29.22822019225458 15.886844855593557 1 -1 -1
183 2 3 -0.1956 15.43641106694799 24.678230580684946 15.155872148104875 0 0 0
184 2 5 0.1816 14.011340981616277 27.420356617269263 12.805615997638009 0 0 0
185 2 3 -0.23 14.303780754267818 22.95322735432141 12.741055837003136 0 0 0
186 2 5 0.131 13.657231289212655 22.496769447930518 13.483407412065898 0 0 0
187 1 4 -0.5760999999999999 12.385473290898629 29.47767514186528 18.944212092987666 1 -1 0
188 3 7 -0.398375 12.140492072166099 28.37886594274573 11.199055830048676 1 0 0
189 2 8 0.23105 15.74571310542007 27.970182706641186 11.665231697546927 0 0 -1
190 2 3 0.1716 13.75903787936346 23.83210215637078 11.781190190189744 0 0 0
191 2 4 -0.5760999999999999 16.794006057304692 23.12361735684724 16.291208901696077 0 0 0
581 1 7 -0.398375 20.764013228330466 30.100017579034656 16.98548406148746 0 -1 0
604 5 3 -0.1956 10.592785318727072 21.093120811514474 15.239525258347784 0 0 0
194 2 8 0.23105 11.739425839647405 24.172298621781067 11.469174662843123 0 0 0
195 3 5 0.131 19.63120892427806 26.441151382213533 13.798744604017225 0 0 0
264 3 8 0.23105 10.497911041683702 29.441328317464716 15.960068390157291 1 0 0
197 1 1 0.743425 17.832755976909347 29.68495111225185 20.530514541794183 1 -1 0
198 1 3 0.014 15.85654278184797 21.505135727997224 18.84802642038065 0 0 0
199 2 3 0.014 14.376430521860234 26.721151645087257 13.542362182731056 0 0 0
200 2 3 -0.1956 13.540237501121501 25.66411514270548 13.966093348520126 0 0 0
201 1 3 -0.23 12.114195797120553 26.94952139613426 16.746907534189976 0 0 -1
202 2 7 -0.398375 20.480087515754928 31.127938597330775 11.42643809368653 0 0 -1
203 1 5 0.131 20.3286605238227 28.285141815437086 15.034518430359206 0 -1 0
204 3 8 0.23105 18.56559507438145 23.8996381442386 15.670683770997359 0 0 0
627 3 1 0.743425 20.110429475398266 25.05557472018922 16.363266350737998 0 0 0
206 1 3 -0.23 11.127582779543085 24.76136431255822 18.219834830473026 0 0 -1
207 3 3 -0.1565 19.812528472195076 25.49085469413567 13.301358406450492 0 0 0
553 3 3 0.1716 20.32141968322711 23.055825304218267 11.989646203641048 0 0 0
209 2 3 0.014 16.232810070335223 25.779204992706685 14.795988371881428 0 0 0
210 1 1 0.743425 20.169196525781974 31.348898755192465 17.238104118152915 0 -1 0
211 2 3 0.014 14.055598970025923 24.704510561142097 14.865699629234138 0 0 0
212 2 3 0.1716 15.698902814682407 22.86877366689505 12.911199480890575 0 0 0
213 1 3 -0.1565 10.765888683004114 26.578894289365294 16.634379040532064 0 0 -1
214 3 8 0.23105 13.019923308685792 28.865047087900226 11.354872874737158 1 0 0
215 1 3 0.1716 16.79357599330982 31.021811334954965 15.761305089117748 1 -1 -1
216 3 8 0.23105 19.532354930179395 27.440427752560794 11.506295969372896 0 0 0
217 1 1 0.743425 13.300885377848287 30.098912417979108 18.44144176955486 1 -1 0
218 2 1 0.743425 12.340272429143914 25.291359289177443 13.14196358351488 0 0 0
219 1 3 0.1716 12.503630552070707 25.078067718757197 18.268944301570865 0 0 -1
220 1 4 -0.5760999999999999 13.7414938121194 22.69409059665213 17.495472593794393 0 0 0
221 2 1 0.743425 16.132913015101778 23.357178975693998 15.29319939642338 0 0 0
763 24 11 -0.5351 18.03273807949301 24.236133712414127 20.110573534372566 0 0 0
223 3 4 -0.5760999999999999 19.521693597923996 25.468220130112904 17.347521091943975 0 0 0
224 2 5 0.1816 13.441264835358892 23.855877141494723 15.140442707207914 0 0 0
225 2 3 -0.1565 18.576330571110883 29.673489651513794 11.845330787548688 0 0 -1
226 1 4 -0.5760999999999999 17.656684319400384 28.477554906573463 20.475390843715072 1 -1 0
85 2 8 0.23105 16.805878967581254 21.702640652932665 14.200251816442591 0 0 0
228 2 7 -0.398375 16.198842908542826 22.51924437879221 14.174135338126996 0 0 0
229 1 5 0.10745 17.67670248518701 30.49910832762743 15.406242140185114 1 -1 -1
230 2 7 -0.398375 12.528595547912653 24.437295570239545 12.052175791847295 0 0 0
231 1 3 0.014 15.466027381809196 29.93172292039159 19.734445333337003 1 -1 0
232 3 3 0.1716 19.750396096127858 24.283396794058188 14.036842129164604 0 0 0
233 2 3 -0.1565 16.537601499025225 23.41245858190661 11.911894769044757 0 0 0
234 1 5 0.131 14.039731294478331 26.447931123173298 17.580820070355912 0 0 -1
235 2 5 0.1816 17.289671716304046 25.77086739192748 15.017492939231161 0 0 0
236 1 5 0.1816 15.392160074209917 28.84895779314847 19.69858358462093 1 -1 0
237 2 3 -0.1956 15.706852605374978 26.818465021839224 14.009752545360556 0 0 0
238 1 3 -0.1956 16.679696461333062 30.556546343785833 20.118463680704515 1 -1 0
239 1 5 0.131 10.75211376850376 23.92201960036582 18.80045979484133 0 0 -1
240 2 3 0.1716 19.538778214220365 30.216895110959136 10.967380297528017 0 0 -1
241 2 4 -0.5760999999999999 17.643621423211005 28.097282395065495 14.160912862865583 0 0 0
242 3 3 -0.23 11.066926175868533 28.94876044639245 11.880781415432297 1 0 0
243 2 5 0.131 17.61583724000228 23.351611763813047 12.00401631215231 0 0 0
244 1 5 0.10745 12.497981089248793 27.783036506452046 16.173407830179148 0 0 -1
245 1 3 -0.1956 14.971933895366329 22.419464428520847 19.455791944559788 0 0 0
246 2 1 0.743425 16.668515207563672 27.82386724618279 13.47916318339095 0 0 0
247 3 7 -0.398375 19.46137344728123 24.29467209138222 15.405396075701884 0 0 0
248 1 7 -0.398375 13.391715233092393 30.27431591583665 17.058334889253995 1 -1 -1
249 1 1 0.743425 13.979184221953892 23.142605272406485 18.6086984929509 0 0 0
250 2 4 -0.5760999999999999 11.244614769542562 25.75425329215508 13.40952149791293 0 0 0
251 3 5 0.131 12.03963893862279 28.784476601718907 13.81134157081378 1 0 0
252 1 3 -0.1565 15.600827974853145 30.310681201166645 16.008208379077455 1 -1 -1
253 2 5 0.131 18.58497652254293 29.97068779594408 12.892721953140123 0 0 -1
254 3 3 -0.23 20.091206625517422 25.48140401115095 11.91836010301578 0 0 0
255 1 8 0.23105 13.696510134149369 24.73626047881 19.897877922886618 0 0 -1
256 1 8 0.23105 12.727564409933228 29.79030926658082 16.465972876555757 1 -1 -1
619 3 5 0.131 19.96078592292208 22.12304026210518 13.899906368106167 0 0 0
258 2 3 -0.23 17.591300993162733 28.781622383504246 11.36181096303685 0 0 -1
259 1 8 0.23105 20.37769913910967 29.314663636328707 17.505656938563142 0 -1 0
260 3 3 -0.1565 11.168197323925966 29.15579454791435 13.274416186168533 1 0 0
261 1 3 0.014 15.05950563388273 22.6496438610082 20.84691808962799 0 0 0
262 1 8 0.23105 20.23687061325712 23.12925802154352 19.537648589868777 0 0 0
771 28 11 -0.5351 11.731561941853284 21.87061779835411 20.67342260650094 0 0 0
766 25 13 0.4315 19.76543502707207 27.20147789892153 19.382539861233788 0 0 0
263 2 3 -0.23 15.977942528725384 24.026076944696264 10.77466853524171 0 0 0
266 5 4 -0.5760999999999999 11.335638873507316 21.71924347138372 13.065178204603063 0 0 0
193 1 3 -0.23 14.434377447441179 30.98258790562356 16.44520954962499 1 -1 -1
761 23 11 -0.5351 16.638967016867127 26.517533691112515 17.959570233931597 0 0 0
765 25 11 -0.5351 20.43846198148712 27.923037190312535 19.338484104887694 0 0 0
762 23 13 0.4315 17.218036000546565 25.76504072539511 18.21457833474532 0 0 0
570 3 3 -0.1565 20.308413744916667 24.25470746950267 11.256077042087636 0 0 0
755 20 11 -0.5351 14.220112809419566 29.896234644770807 13.144057288963074 0 0 0
756 20 13 0.4315 14.15907856274517 30.704852671695487 13.693643668954676 0 0 0
757 21 11 -0.5351 15.3642893455379 25.79880081390698 20.768198160841028 0 0 0
758 21 13 0.4315 16.30376742129737 26.065169859031993 20.651238814910812 0 0 0
635 3 3 -0.23 19.996743768906672 23.068291804075443 13.361785136150207 0 0 0
624 3 5 0.10745 20.526385211279862 22.125501585429834 11.479527980198926 0 0 0
192 1 5 0.1816 15.795538078738172 21.336888861553287 17.780686350525116 0 0 0
205 2 3 -0.1565 14.599987955862831 24.314195325558792 10.75509257401315 0 0 0
270 4 3 -0.1956 19.36201778623913 25.69192173544091 24.701975372303995 0 0 -1
271 4 3 0.014 19.489856540705308 26.390788139396424 25.917475223677314 0 0 -1
272 2 3 -0.23 19.563620022508108 29.794232353351884 30.556735910972655 0 0 -2
273 2 5 0.10745 16.003438063993606 30.37444608493677 27.68047048931308 0 -1 -1
813 49 11 -0.5351 12.44563856415839 30.036220825888613 29.204928453851764 1 0 0
275 1 3 0.014 13.544745004210773 29.166334750752284 26.115734992572747 1 -1 -1
276 2 3 -0.23 15.427643979512665 31.252005906151318 29.578007569548227 0 -1 -1
277 1 4 -0.5760999999999999 19.827312861982563 22.106607792028534 21.83692127433952 0 0 0
278 1 5 0.131 18.243240691261192 24.02634377475593 28.706809940489897 0 0 -1
279 1 3 0.1716 17.595831615235728 22.81154999254999 25.034829947672932 0 0 -1
280 1 3 0.1716 12.053947138162519 28.205360810910783 22.178894641327446 0 -1 -1
281 1 5 0.131 14.089342981722135 27.646594131004836 21.76067216792383 0 -1 -1
282 1 4 -0.5760999999999999 11.593547383623639 22.373640349448245 24.314111927975777 0 0 -1
283 1 3 -0.23 16.800113531279397 23.83139924290394 25.60573184101172 0 0 -1
284 2 3 0.1716 18.615252005841267 28.87640395156874 30.075502531172123 0 0 -2
285 4 3 -0.1565 20.067561417813174 28.826772254763974 24.720586577885143 0 -1 -1
286 1 3 -0.1956 16.054690789536316 22.007931968048844 21.613394646331855 0 0 0
287 1 3 0.014 14.858856909679073 30.34998850592536 24.45191742857738 1 -1 -1
288 1 4 -0.5760999999999999 16.614728436475723 27.89556869803416 25.29838057261496 1 -1 -1
289 1 8 0.23105 16.356864413978307 26.08526060371549 27.647561488878928 0 0 -1
290 1 3 -0.1565 18.06388887101705 23.71074711656467 27.680252492014905 0 0 -1
291 3 5 0.1816 12.0158460592838 25.94941295516636 28.914131847684036 1 0 -1
292 1 3 -0.1956 14.681289612994378 29.227323598582505 25.28701092605788 1 -1 -1
293 4 4 -0.5760999999999999 17.630519632495314 25.604857228151754 23.09914550970298 0 0 -1
294 4 3 0.1716 20.020826488005383 28.230282738838785 23.442120929738127 0 -1 -1
295 2 5 0.10745 18.642425901726636 28.553067450714583 29.040031264494093 0 0 -2
296 1 3 -0.1956 12.914771929713563 21.741969974525702 26.13680825074922 0 0 -1
297 2 5 0.131 14.200892610949357 24.940775422831038 30.899202148658617 0 0 -1
298 1 3 -0.1956 14.270234625173906 23.398921395796112 27.360723942924995 0 0 -1
299 2 5 0.131 20.329308807523333 30.16533238659045 29.878975724031967 0 0 -2
300 3 3 -0.1956 11.034401361866252 26.505594386169193 30.75143842865183 1 0 -1
301 1 3 -0.1956 12.487387542555076 30.077635181328677 25.94401672665398 1 -1 -1
302 1 3 -0.1565 18.662784615063252 22.278951679430268 25.793000211941422 0 0 -1
303 1 3 0.014 12.67559980025586 31.200935110781362 25.11621679636073 1 -1 -1
304 1 1 0.743425 16.146720526948155 22.277112867713477 23.070747925961534 0 0 0
305 1 8 0.23105 15.34919250721824 26.146686828227608 23.962652832663746 0 -1 -1
306 1 7 -0.398375 17.37036235267393 22.371009121388937 23.72546439265681 0 0 -1
307 4 1 0.743425 18.523550469079147 26.272202296024876 23.600585703874238 0 0 -1
308 1 5 0.10745 19.63252513101888 22.24089738978891 27.727854796285488 0 0 -1
309 1 1 0.743425 15.433187722032608 27.958975776231817 25.005482272241746 1 -1 -1